
     Program PWSCF v.6.1 starts on 28Mar2017 at 16:41:18 

     This program is part of the open-source Quantum ESPRESSO suite
     for quantum simulation of materials; please cite
         "P. Giannozzi et al., J. Phys.:Condens. Matter 21 395502 (2009);
          URL http://www.quantum-espresso.org", 
     in publications or presentations arising from this work. More details at
     http://www.quantum-espresso.org/quote

     Parallel version (MPI & OpenMP), running on      24 processor cores
     Number of MPI processes:                24
     Threads/MPI process:                     1
     K-points division:     npool     =       2
     R & G space division:  proc/nbgrp/npool/nimage =      12
     Reading input from aiida.in

     Current dimensions of program PWSCF are:
     Max number of different atomic species (ntypx) = 10
     Max number of k-points (npk) =  40000
     Max angular momentum in pseudopotentials (lmaxx) =  3
               file Pb.pbe-dn-kjpaw_psl.0.2.2.UPF: wavefunction(s)  6S renormalized

     Subspace diagonalization in iterative solution of the eigenvalue problem:
     one sub-group per band group will be used
     scalapack distributed-memory algorithm (size of sub-group:  2*  2 procs)

 
     Parallelization info
     --------------------
     sticks:   dense  smooth     PW     G-vecs:    dense   smooth      PW
     Min         123      62     17                18909     6698    1034
     Max         125      63     18                18918     6707    1046
     Sum        1483     745    211               226955    80433   12455
 


     bravais-lattice index     =            0
     lattice parameter (alat)  =       8.1474  a.u.
     unit-cell volume          =    2348.0187 (a.u.)^3
     number of atoms/cell      =            2
     number of atomic types    =            2
     number of electrons       =        20.00
     number of Kohn-Sham states=           10
     kinetic-energy cutoff     =      40.0000  Ry
     charge density cutoff     =     320.0000  Ry
     convergence threshold     =      4.0E-10
     mixing beta               =       0.7000
     number of iterations used =            8  plain     mixing
     Exchange-correlation      = SLA  PW   PBE  PBE ( 1  4  3  4 0 0)

     celldm(1)=   8.147394  celldm(2)=   0.000000  celldm(3)=   0.000000
     celldm(4)=   0.000000  celldm(5)=   0.000000  celldm(6)=   0.000000

     crystal axes: (cart. coord. in units of alat)
               a(1) = (   1.000000   0.000000   0.000000 )  
               a(2) = (  -0.500000   0.866025   0.000000 )  
               a(3) = (   0.000000   0.000000   5.013197 )  

     reciprocal axes: (cart. coord. in units 2 pi/alat)
               b(1) = (  1.000000  0.577350  0.000000 )  
               b(2) = (  0.000000  1.154701  0.000000 )  
               b(3) = (  0.000000  0.000000  0.199473 )  


     PseudoPot. # 1 for Pb read from file:
     ./pseudo/Pb.pbe-dn-kjpaw_psl.0.2.2.UPF
     MD5 check sum: 3430a4e844b953b651517319381e3a28
     Pseudo is Projector augmented-wave + core cor, Zval = 14.0
     Generated using "atomic" code by A. Dal Corso  v.5.0.99 svn rev. 10869
     Shape of augmentation charge: PSQ
     Using radial grid of 1281 points,  6 beta functions with: 
                l(1) =   0
                l(2) =   0
                l(3) =   1
                l(4) =   1
                l(5) =   2
                l(6) =   2
     Q(r) pseudized with 0 coefficients 


     PseudoPot. # 2 for Te read from file:
     ./pseudo/te_pbe_v1.uspp.F.UPF
     MD5 check sum: c319670d6894cc26e93307826a071b75
     Pseudo is Ultrasoft + core correction, Zval =  6.0
     Generated by new atomic code, or converted to UPF format
     Using radial grid of  891 points,  5 beta functions with: 
                l(1) =   0
                l(2) =   0
                l(3) =   1
                l(4) =   1
                l(5) =   2
     Q(r) pseudized with  6 coefficients,  rinner =    1.800   1.800   1.800
                                                       1.800   1.800

     atomic species   valence    mass     pseudopotential
        Pb            14.00   207.20000     Pb( 1.00)
        Te             6.00   127.60000     Te( 1.00)

      6 Sym. Ops. (no inversion) found


                                    s                        frac. trans.

      isym =  1     identity                                     

 cryst.   s( 1) = (     1          0          0      )
                  (     0          1          0      )
                  (     0          0          1      )

 cart.    s( 1) = (  1.0000000 -0.0000000  0.0000000 )
                  (  0.0000000  1.0000000  0.0000000 )
                  (  0.0000000  0.0000000  1.0000000 )


      isym =  2     120 deg rotation - cryst. axis [0,0,1]       

 cryst.   s( 2) = (     0          1          0      )
                  (    -1         -1          0      )
                  (     0          0          1      )

 cart.    s( 2) = ( -0.5000000 -0.8660254  0.0000000 )
                  (  0.8660254 -0.5000000  0.0000000 )
                  (  0.0000000  0.0000000  1.0000000 )


      isym =  3     120 deg rotation - cryst. axis [0,0,-1]      

 cryst.   s( 3) = (    -1         -1          0      )
                  (     1          0          0      )
                  (     0          0          1      )

 cart.    s( 3) = ( -0.5000000  0.8660254  0.0000000 )
                  ( -0.8660254 -0.5000000  0.0000000 )
                  (  0.0000000  0.0000000  1.0000000 )


      isym =  4     inv. 180 deg rotation - cart. axis [1,0,0]   

 cryst.   s( 4) = (    -1          0          0      )
                  (     1          1          0      )
                  (     0          0          1      )

 cart.    s( 4) = ( -1.0000000  0.0000000  0.0000000 )
                  (  0.0000000  1.0000000  0.0000000 )
                  (  0.0000000  0.0000000  1.0000000 )


      isym =  5     inv. 180 deg rotation - cryst. axis [0,1,0]  

 cryst.   s( 5) = (     1          1          0      )
                  (     0         -1          0      )
                  (     0          0          1      )

 cart.    s( 5) = (  0.5000000  0.8660254  0.0000000 )
                  (  0.8660254 -0.5000000  0.0000000 )
                  (  0.0000000  0.0000000  1.0000000 )


      isym =  6     inv. 180 deg rotation - cryst. axis [1,1,0]  

 cryst.   s( 6) = (     0         -1          0      )
                  (    -1          0          0      )
                  (     0          0          1      )

 cart.    s( 6) = (  0.5000000 -0.8660254  0.0000000 )
                  ( -0.8660254 -0.5000000  0.0000000 )
                  (  0.0000000  0.0000000  1.0000000 )


   Cartesian axes

     site n.     atom                  positions (alat units)
         1           Te  tau(   1) = (   0.0000000   0.5773503   2.7031875  )
         2           Pb  tau(   2) = (   0.0000000   0.0000000   2.3100099  )

   Crystallographic axes

     site n.     atom                  positions (cryst. coord.)
         1           Te  tau(   1) = (  0.3333333  0.6666667  0.5392143  )
         2           Pb  tau(   2) = (  0.0000000  0.0000000  0.4607857  )

     number of k points=    14
                       cart. coord. in units 2pi/alat
        k(    1) = (   0.0000000   0.0000000   0.0000000), wk =   0.0200000
        k(    2) = (   0.0000000   0.1154701   0.0000000), wk =   0.1200000
        k(    3) = (   0.0000000   0.2309401   0.0000000), wk =   0.1200000
        k(    4) = (   0.0000000   0.3464102   0.0000000), wk =   0.1200000
        k(    5) = (   0.0000000   0.4618802   0.0000000), wk =   0.1200000
        k(    6) = (   0.0000000  -0.5773503   0.0000000), wk =   0.0600000
        k(    7) = (   0.1000000   0.1732051   0.0000000), wk =   0.1200000
        k(    8) = (   0.1000000   0.2886751   0.0000000), wk =   0.2400000
        k(    9) = (   0.1000000   0.4041452   0.0000000), wk =   0.2400000
        k(   10) = (   0.1000000   0.5196152   0.0000000), wk =   0.2400000
        k(   11) = (   0.2000000   0.3464102   0.0000000), wk =   0.1200000
        k(   12) = (   0.2000000   0.4618802   0.0000000), wk =   0.2400000
        k(   13) = (   0.2000000   0.5773503   0.0000000), wk =   0.1200000
        k(   14) = (   0.3000000   0.5196152   0.0000000), wk =   0.1200000

                       cryst. coord.
        k(    1) = (   0.0000000   0.0000000   0.0000000), wk =   0.0200000
        k(    2) = (   0.0000000   0.1000000   0.0000000), wk =   0.1200000
        k(    3) = (   0.0000000   0.2000000   0.0000000), wk =   0.1200000
        k(    4) = (   0.0000000   0.3000000   0.0000000), wk =   0.1200000
        k(    5) = (   0.0000000   0.4000000   0.0000000), wk =   0.1200000
        k(    6) = (   0.0000000  -0.5000000   0.0000000), wk =   0.0600000
        k(    7) = (   0.1000000   0.1000000   0.0000000), wk =   0.1200000
        k(    8) = (   0.1000000   0.2000000   0.0000000), wk =   0.2400000
        k(    9) = (   0.1000000   0.3000000   0.0000000), wk =   0.2400000
        k(   10) = (   0.1000000   0.4000000   0.0000000), wk =   0.2400000
        k(   11) = (   0.2000000   0.2000000   0.0000000), wk =   0.1200000
        k(   12) = (   0.2000000   0.3000000   0.0000000), wk =   0.2400000
        k(   13) = (   0.2000000   0.4000000   0.0000000), wk =   0.1200000
        k(   14) = (   0.3000000   0.3000000   0.0000000), wk =   0.1200000

     Dense  grid:   226955 G-vectors     FFT dimensions: (  48,  48, 240)

     Smooth grid:    80433 G-vectors     FFT dimensions: (  36,  36, 180)

     Estimated max dynamical RAM per process >      13.38MB

     Estimated total allocated dynamical RAM >     321.23MB
 ----2D----2D----2D----2D----2D----2D
 THE CODE IS RUNNING WITH 2D CUTOFF
 ----2D----2D----2D----2D----2D----2D

     Initial potential from superposition of free atoms
     Check: negative starting charge=   -0.000803

     starting charge   19.94869, renormalised to   20.00000

     negative rho (up, down):  8.053E-04 0.000E+00
     Starting wfc are   13 randomized atomic wfcs
     Checking if some PAW data can be deallocated... 
       node    0, deallocated PAW data for type:  1
       node    1, deallocated PAW data for type:  1
       node    2, deallocated PAW data for type:  1
       node    3, deallocated PAW data for type:  1
       node    4, deallocated PAW data for type:  1
       node    5, deallocated PAW data for type:  1
       node    6, deallocated PAW data for type:  1
       node    7, deallocated PAW data for type:  1
       node    8, deallocated PAW data for type:  1
       node    9, deallocated PAW data for type:  1
       node   10, deallocated PAW data for type:  1
       node   11, deallocated PAW data for type:  1

     total cpu time spent up to now is        2.2 secs

     per-process dynamical memory:     7.7 Mb

     Self-consistent Calculation

     iteration #  1     ecut=    40.00 Ry     beta=0.70
     Davidson diagonalization with overlap
     ethr =  1.00E-02,  avg # of iterations =  2.0

     Threshold (ethr) on eigenvalues was too large:
     Diagonalizing with lowered threshold

     Davidson diagonalization with overlap
     ethr =  6.81E-04,  avg # of iterations =  1.5

     negative rho (up, down):  3.452E-04 0.000E+00

     total cpu time spent up to now is        3.0 secs

     total energy              =    -896.97706456 Ry
     Harris-Foulkes estimate   =    -897.09404627 Ry
     estimated scf accuracy    <       0.12828201 Ry

     iteration #  2     ecut=    40.00 Ry     beta=0.70
     Davidson diagonalization with overlap
     ethr =  6.41E-04,  avg # of iterations =  5.4

     negative rho (up, down):  2.357E-04 0.000E+00

     total cpu time spent up to now is        3.6 secs

     total energy              =    -896.66002552 Ry
     Harris-Foulkes estimate   =    -897.45519244 Ry
     estimated scf accuracy    <       3.30188123 Ry

     iteration #  3     ecut=    40.00 Ry     beta=0.70
     Davidson diagonalization with overlap
     ethr =  6.41E-04,  avg # of iterations =  4.9

     negative rho (up, down):  2.353E-04 0.000E+00

     total cpu time spent up to now is        4.1 secs

     total energy              =    -897.07942397 Ry
     Harris-Foulkes estimate   =    -897.08366822 Ry
     estimated scf accuracy    <       0.01662931 Ry

     iteration #  4     ecut=    40.00 Ry     beta=0.70
     Davidson diagonalization with overlap
     ethr =  8.31E-05,  avg # of iterations =  3.4

     negative rho (up, down):  2.763E-04 0.000E+00

     total cpu time spent up to now is        4.6 secs

     total energy              =    -897.08203812 Ry
     Harris-Foulkes estimate   =    -897.08240469 Ry
     estimated scf accuracy    <       0.00114472 Ry

     iteration #  5     ecut=    40.00 Ry     beta=0.70
     Davidson diagonalization with overlap
     ethr =  5.72E-06,  avg # of iterations =  5.1

     negative rho (up, down):  2.750E-04 0.000E+00

     total cpu time spent up to now is        5.2 secs

     total energy              =    -897.08272811 Ry
     Harris-Foulkes estimate   =    -897.08297180 Ry
     estimated scf accuracy    <       0.00059481 Ry

     iteration #  6     ecut=    40.00 Ry     beta=0.70
     Davidson diagonalization with overlap
     ethr =  2.97E-06,  avg # of iterations =  2.0

     negative rho (up, down):  2.764E-04 0.000E+00

     total cpu time spent up to now is        5.7 secs

     total energy              =    -897.08278184 Ry
     Harris-Foulkes estimate   =    -897.08280374 Ry
     estimated scf accuracy    <       0.00005161 Ry

     iteration #  7     ecut=    40.00 Ry     beta=0.70
     Davidson diagonalization with overlap
     ethr =  2.58E-07,  avg # of iterations =  3.8

     negative rho (up, down):  2.770E-04 0.000E+00

     total cpu time spent up to now is        6.3 secs

     total energy              =    -897.08279784 Ry
     Harris-Foulkes estimate   =    -897.08279942 Ry
     estimated scf accuracy    <       0.00000423 Ry

     iteration #  8     ecut=    40.00 Ry     beta=0.70
     Davidson diagonalization with overlap
     ethr =  2.11E-08,  avg # of iterations =  4.0

     negative rho (up, down):  2.774E-04 0.000E+00

     total cpu time spent up to now is        6.9 secs

     total energy              =    -897.08280056 Ry
     Harris-Foulkes estimate   =    -897.08280057 Ry
     estimated scf accuracy    <       0.00000020 Ry

     iteration #  9     ecut=    40.00 Ry     beta=0.70
     Davidson diagonalization with overlap
     ethr =  1.02E-09,  avg # of iterations =  4.3

     negative rho (up, down):  2.771E-04 0.000E+00

     total cpu time spent up to now is        7.5 secs

     total energy              =    -897.08280069 Ry
     Harris-Foulkes estimate   =    -897.08280070 Ry
     estimated scf accuracy    <       0.00000003 Ry

     iteration # 10     ecut=    40.00 Ry     beta=0.70
     Davidson diagonalization with overlap
     ethr =  1.50E-10,  avg # of iterations =  4.1

     negative rho (up, down):  2.771E-04 0.000E+00

     total cpu time spent up to now is        8.1 secs

     total energy              =    -897.08280071 Ry
     Harris-Foulkes estimate   =    -897.08280071 Ry
     estimated scf accuracy    <          5.4E-09 Ry

     iteration # 11     ecut=    40.00 Ry     beta=0.70
     Davidson diagonalization with overlap
     ethr =  2.71E-11,  avg # of iterations =  3.4

     negative rho (up, down):  2.771E-04 0.000E+00

     total cpu time spent up to now is        8.7 secs

     End of self-consistent calculation

          k = 0.0000 0.0000 0.0000 ( 10037 PWs)   bands (ev):

   -21.1828 -21.1828 -21.1305 -21.1299 -21.1299 -16.0485 -11.5175  -5.2790
    -4.9643  -4.9643

     occupation numbers 
     1.0000   1.0000   1.0000   1.0000   1.0000   1.0000   1.0000   1.0000
     1.0000   1.0000

          k = 0.0000 0.1155 0.0000 ( 10021 PWs)   bands (ev):

   -21.1856 -21.1794 -21.1327 -21.1300 -21.1277 -15.9647 -11.5367  -5.6569
    -5.1690  -5.1031

     occupation numbers 
     1.0000   1.0000   1.0000   1.0000   1.0000   1.0000   1.0000   1.0000
     1.0000   1.0000

          k = 0.0000 0.2309 0.0000 ( 10008 PWs)   bands (ev):

   -21.1937 -21.1711 -21.1386 -21.1299 -21.1214 -15.7238 -11.6280  -6.5141
    -5.4175  -5.2105

     occupation numbers 
     1.0000   1.0000   1.0000   1.0000   1.0000   1.0000   1.0000   1.0000
     1.0000   1.0000

          k = 0.0000 0.3464 0.0000 ( 10028 PWs)   bands (ev):

   -21.2048 -21.1622 -21.1450 -21.1285 -21.1134 -15.3649 -11.8575  -7.1067
    -5.7412  -5.4338

     occupation numbers 
     1.0000   1.0000   1.0000   1.0000   1.0000   1.0000   1.0000   1.0000
     1.0000   1.0000

          k = 0.0000 0.4619 0.0000 ( 10030 PWs)   bands (ev):

   -21.2143 -21.1566 -21.1495 -21.1256 -21.1068 -14.9871 -12.1897  -7.3196
    -5.9682  -5.8150

     occupation numbers 
     1.0000   1.0000   1.0000   1.0000   1.0000   1.0000   1.0000   1.0000
     1.0000   1.0000

          k = 0.0000-0.5774 0.0000 ( 10058 PWs)   bands (ev):

   -21.2180 -21.1551 -21.1512 -21.1240 -21.1043 -14.8043 -12.3704  -7.3295
    -6.0487  -6.0179

     occupation numbers 
     1.0000   1.0000   1.0000   1.0000   1.0000   1.0000   1.0000   1.0000
     1.0000   1.0000

          k = 0.1000 0.1732 0.0000 ( 10009 PWs)   bands (ev):

   -21.1905 -21.1743 -21.1365 -21.1305 -21.1232 -15.8021 -11.5918  -6.2492
    -5.4588  -5.1585

     occupation numbers 
     1.0000   1.0000   1.0000   1.0000   1.0000   1.0000   1.0000   1.0000
     1.0000   1.0000

          k = 0.1000 0.2887 0.0000 ( 10018 PWs)   bands (ev):

   -21.1992 -21.1668 -21.1417 -21.1305 -21.1160 -15.4999 -11.7545  -6.8449
    -5.9466  -5.2403

     occupation numbers 
     1.0000   1.0000   1.0000   1.0000   1.0000   1.0000   1.0000   1.0000
     1.0000   1.0000

          k = 0.1000 0.4041 0.0000 ( 10032 PWs)   bands (ev):

   -21.2088 -21.1604 -21.1464 -21.1286 -21.1090 -15.1205 -12.0507  -7.1974
    -6.2756  -5.5276

     occupation numbers 
     1.0000   1.0000   1.0000   1.0000   1.0000   1.0000   1.0000   1.0000
     1.0000   1.0000

          k = 0.1000 0.5196 0.0000 ( 10047 PWs)   bands (ev):

   -21.2151 -21.1574 -21.1491 -21.1260 -21.1050 -14.8137 -12.3390  -7.3147
    -6.3415  -5.8926

     occupation numbers 
     1.0000   1.0000   1.0000   1.0000   1.0000   1.0000   1.0000   1.0000
     1.0000   1.0000

          k = 0.2000 0.3464 0.0000 ( 10028 PWs)   bands (ev):

   -21.2049 -21.1636 -21.1437 -21.1314 -21.1098 -15.1698 -11.9936  -6.9652
    -6.6589  -5.4063

     occupation numbers 
     1.0000   1.0000   1.0000   1.0000   1.0000   1.0000   1.0000   1.0000
     1.0000   1.0000

          k = 0.2000 0.4619 0.0000 ( 10043 PWs)   bands (ev):

   -21.2098 -21.1617 -21.1446 -21.1306 -21.1060 -14.8287 -12.2877  -7.2276
    -6.7649  -5.7406

     occupation numbers 
     1.0000   1.0000   1.0000   1.0000   1.0000   1.0000   1.0000   1.0000
     1.0000   1.0000

          k = 0.2000 0.5774 0.0000 ( 10014 PWs)   bands (ev):

   -21.2117 -21.1611 -21.1449 -21.1296 -21.1049 -14.6670 -12.4382  -7.4014
    -6.5831  -6.0004

     occupation numbers 
     1.0000   1.0000   1.0000   1.0000   1.0000   1.0000   1.0000   1.0000
     1.0000   1.0000

          k = 0.3000 0.5196 0.0000 ( 10012 PWs)   bands (ev):

   -21.2093 -21.1634 -21.1406 -21.1336 -21.1053 -14.6097 -12.4698  -7.5024
    -6.6055  -6.0320

     occupation numbers 
     1.0000   1.0000   1.0000   1.0000   1.0000   1.0000   1.0000   1.0000
     1.0000   1.0000

     highest occupied level (ev):    -4.9643

!    total energy              =    -897.08280071 Ry
     Harris-Foulkes estimate   =    -897.08280071 Ry
     estimated scf accuracy    <          1.8E-10 Ry

     The total energy is the sum of the following terms:

     one-electron contribution =    -758.79338978 Ry
     hartree contribution      =     384.42115686 Ry
     xc contribution           =     -58.71673373 Ry
     ewald contribution        =     264.44488111 Ry
     one-center paw contrib.   =    -728.43871516 Ry
      -> PAW hartree energy AE =       0.00000000 Ry
      -> PAW hartree energy PS =       0.00000000 Ry
      -> PAW xc energy AE      =       0.00000000 Ry
      -> PAW xc energy PS      =       0.00000000 Ry
      -> total E_H with PAW    =     384.42115686 Ry
      -> total E_XC with PAW   =     -58.71673373 Ry

     convergence has been achieved in  11 iterations

     Writing output data file aiida.save
 
     init_run     :      1.59s CPU      1.64s WALL (       1 calls)
     electrons    :      5.62s CPU      6.55s WALL (       1 calls)

     Called by init_run:
     wfcinit      :      0.08s CPU      0.08s WALL (       1 calls)
     wfcinit:atom :      0.00s CPU      0.00s WALL (       7 calls)
     wfcinit:wfcr :      0.07s CPU      0.07s WALL (       7 calls)
     potinit      :      0.30s CPU      0.30s WALL (       1 calls)

     Called by electrons:
     c_bands      :      2.58s CPU      2.62s WALL (      12 calls)
     sum_band     :      1.29s CPU      1.73s WALL (      12 calls)
     v_of_rho     :      0.26s CPU      0.28s WALL (      12 calls)
     v_h          :      0.02s CPU      0.02s WALL (      12 calls)
     v_xc         :      0.25s CPU      0.27s WALL (      12 calls)
     newd         :      0.85s CPU      1.30s WALL (      12 calls)
     PAW_pot      :      0.65s CPU      0.63s WALL (      12 calls)
     mix_rho      :      0.05s CPU      0.05s WALL (      12 calls)

     Called by c_bands:
     init_us_2    :      0.06s CPU      0.06s WALL (     175 calls)
     cegterg      :      2.26s CPU      2.35s WALL (      84 calls)

     Called by sum_band:
     sum_band:bec :      0.00s CPU      0.00s WALL (      84 calls)
     addusdens    :      0.87s CPU      1.29s WALL (      12 calls)

     Called by *egterg:
     h_psi        :      1.74s CPU      1.85s WALL (     412 calls)
     s_psi        :      0.04s CPU      0.03s WALL (     412 calls)
     g_psi        :      0.02s CPU      0.01s WALL (     321 calls)
     cdiaghg      :      0.31s CPU      0.30s WALL (     398 calls)
     cegterg:over :      0.03s CPU      0.04s WALL (     321 calls)
     cegterg:upda :      0.11s CPU      0.09s WALL (     321 calls)
     cegterg:last :      0.01s CPU      0.02s WALL (      93 calls)
     cdiaghg:chol :      0.04s CPU      0.03s WALL (     398 calls)
     cdiaghg:inve :      0.00s CPU      0.01s WALL (     398 calls)
     cdiaghg:para :      0.02s CPU      0.03s WALL (     796 calls)

     Called by h_psi:
     h_psi:pot    :      1.74s CPU      1.84s WALL (     412 calls)
     h_psi:calbec :      0.04s CPU      0.05s WALL (     412 calls)
     vloc_psi     :      1.67s CPU      1.76s WALL (     412 calls)
     add_vuspsi   :      0.03s CPU      0.03s WALL (     412 calls)

     General routines
     calbec       :      0.04s CPU      0.06s WALL (     496 calls)
     fft          :      0.22s CPU      0.28s WALL (     192 calls)
     ffts         :      0.01s CPU      0.02s WALL (      24 calls)
     fftw         :      1.69s CPU      1.78s WALL (    6510 calls)
     interpolate  :      0.03s CPU      0.04s WALL (      24 calls)
     davcio       :      0.00s CPU      0.00s WALL (       7 calls)
 
     Parallel routines
     fft_scatter  :      0.36s CPU      0.42s WALL (    6726 calls)

     PAW routines
     PAW_pot      :      0.65s CPU      0.63s WALL (      12 calls)
     PAW_symme    :      0.01s CPU      0.01s WALL (      24 calls)
 
     PWSCF        :     7.64s CPU         9.86s WALL

 
   This run was terminated on:  16:41:28  28Mar2017            

=------------------------------------------------------------------------------=
   JOB DONE.
=------------------------------------------------------------------------------=
