
     Program PWSCF v.5.1 starts on  6Jan2017 at  6: 6:59 

     This program is part of the open-source Quantum ESPRESSO suite
     for quantum simulation of materials; please cite
         "P. Giannozzi et al., J. Phys.:Condens. Matter 21 395502 (2009);
          URL http://www.quantum-espresso.org", 
     in publications or presentations arising from this work. More details at
     http://www.quantum-espresso.org/quote

     Parallel version (MPI), running on    72 processors
     K-points division:     npool     =      12
     R & G space division:  proc/nbgrp/npool/nimage =       6
     Reading input from aiida.in

     Current dimensions of program PWSCF are:
     Max number of different atomic species (ntypx) = 10
     Max number of k-points (npk) =  40000
     Max angular momentum in pseudopotentials (lmaxx) =  3

     Atomic positions and unit cell read from directory:
     ./out/aiida.save/
 
               file Pb.pbe-dn-kjpaw_psl.0.2.2.UPF: wavefunction(s)  6S renormalized

     Subspace diagonalization in iterative solution of the eigenvalue problem:
     a serial algorithm will be used

 
     Parallelization info
     --------------------
     sticks:   dense  smooth     PW     G-vecs:    dense   smooth      PW
     Min         236     120     34                36898    13062    2065
     Max         237     121     36                36925    13082    2074
     Sum        1417     721    211               221429    78417   12419
 
 ----2D----2D----2D----2D----2D----2D
 THE CODE IS RUNNING WITH 2D CUTOFF
 ----2D----2D----2D----2D----2D----2D


     bravais-lattice index     =            0
     lattice parameter (alat)  =       8.0521  a.u.
     unit-cell volume          =    2293.3942 (a.u.)^3
     number of atoms/cell      =            2
     number of atomic types    =            2
     number of electrons       =        20.00
     number of Kohn-Sham states=           14
     kinetic-energy cutoff     =      40.0000  Ry
     charge density cutoff     =     320.0000  Ry
     Exchange-correlation      = SLA  PW   PBE  PBE ( 1  4  3  4 0 0)

     celldm(1)=   8.052065  celldm(2)=   0.000000  celldm(3)=   0.000000
     celldm(4)=   0.000000  celldm(5)=   0.000000  celldm(6)=   0.000000

     crystal axes: (cart. coord. in units of alat)
               a(1) = (   1.000000   0.000000   0.000000 )  
               a(2) = (  -0.500000   0.866025   0.000000 )  
               a(3) = (   0.000000   0.000000   5.072549 )  

     reciprocal axes: (cart. coord. in units 2 pi/alat)
               b(1) = (  1.000000  0.577350  0.000000 )  
               b(2) = (  0.000000  1.154701  0.000000 )  
               b(3) = (  0.000000  0.000000  0.197140 )  


     PseudoPot. # 1 for Pb read from file:
     ./pseudo/Pb.pbe-dn-kjpaw_psl.0.2.2.UPF
     MD5 check sum: 3430a4e844b953b651517319381e3a28
     Pseudo is Projector augmented-wave + core cor, Zval = 14.0
     Generated using "atomic" code by A. Dal Corso  v.5.0.99 svn rev. 10869
     Shape of augmentation charge: PSQ
     Using radial grid of 1281 points,  6 beta functions with: 
                l(1) =   0
                l(2) =   0
                l(3) =   1
                l(4) =   1
                l(5) =   2
                l(6) =   2
     Q(r) pseudized with 0 coefficients 


     PseudoPot. # 2 for Te read from file:
     ./pseudo/te_pbe_v1.uspp.F.UPF
     MD5 check sum: c319670d6894cc26e93307826a071b75
     Pseudo is Ultrasoft + core correction, Zval =  6.0
     Generated by new atomic code, or converted to UPF format
     Using radial grid of  891 points,  5 beta functions with: 
                l(1) =   0
                l(2) =   0
                l(3) =   1
                l(4) =   1
                l(5) =   2
     Q(r) pseudized with  6 coefficients,  rinner =    1.800   1.800   1.800
                                                       1.800   1.800

     atomic species   valence    mass     pseudopotential
        Pb            14.00   207.20000     Pb( 1.00)
        Te             6.00   127.60000     Te( 1.00)

      6 Sym. Ops. (no inversion) found


                                    s                        frac. trans.

      isym =  1     identity                                     

 cryst.   s( 1) = (     1          0          0      )
                  (     0          1          0      )
                  (     0          0          1      )

 cart.    s( 1) = (  1.0000000  0.0000000  0.0000000 )
                  (  0.0000000  1.0000000  0.0000000 )
                  (  0.0000000  0.0000000  1.0000000 )


      isym =  2     120 deg rotation - cryst. axis [0,0,1]       

 cryst.   s( 2) = (     0          1          0      )
                  (    -1         -1          0      )
                  (     0          0          1      )

 cart.    s( 2) = ( -0.5000000 -0.8660254  0.0000000 )
                  (  0.8660254 -0.5000000  0.0000000 )
                  (  0.0000000  0.0000000  1.0000000 )


      isym =  3     120 deg rotation - cryst. axis [0,0,-1]      

 cryst.   s( 3) = (    -1         -1          0      )
                  (     1          0          0      )
                  (     0          0          1      )

 cart.    s( 3) = ( -0.5000000  0.8660254  0.0000000 )
                  ( -0.8660254 -0.5000000  0.0000000 )
                  (  0.0000000  0.0000000  1.0000000 )


      isym =  4     inv. 180 deg rotation - cart. axis [1,0,0]   

 cryst.   s( 4) = (    -1          0          0      )
                  (     1          1          0      )
                  (     0          0          1      )

 cart.    s( 4) = ( -1.0000000 -0.0000000  0.0000000 )
                  (  0.0000000  1.0000000  0.0000000 )
                  (  0.0000000  0.0000000  1.0000000 )


      isym =  5     inv. 180 deg rotation - cryst. axis [0,1,0]  

 cryst.   s( 5) = (     1          1          0      )
                  (     0         -1          0      )
                  (     0          0          1      )

 cart.    s( 5) = (  0.5000000  0.8660254  0.0000000 )
                  (  0.8660254 -0.5000000  0.0000000 )
                  (  0.0000000  0.0000000  1.0000000 )


      isym =  6     inv. 180 deg rotation - cryst. axis [1,1,0]  

 cryst.   s( 6) = (     0         -1          0      )
                  (    -1          0          0      )
                  (     0          0          1      )

 cart.    s( 6) = (  0.5000000 -0.8660254  0.0000000 )
                  ( -0.8660254 -0.5000000  0.0000000 )
                  (  0.0000000  0.0000000  1.0000000 )


   Cartesian axes

     site n.     atom                  positions (alat units)
         1           Te  tau(   1) = (   0.0000000   0.5773503   2.7411991  )
         2           Pb  tau(   2) = (   0.0000000   0.0000000   2.3313497  )

   Crystallographic axes

     site n.     atom                  positions (cryst. coord.)
         1           Te  tau(   1) = (  0.3333333  0.6666667  0.5403988  )
         2           Pb  tau(   2) = (  0.0000000  0.0000000  0.4596012  )

     number of k points=   132  Marzari-Vanderbilt smearing, width (Ry)=  0.0200
                       cart. coord. in units 2pi/alat
        k(    1) = (   0.0000000   0.0000000   0.0000000), wk =   0.0151515
        k(    2) = (   0.0102041   0.0058913   0.0000000), wk =   0.0151515
        k(    3) = (   0.0204082   0.0117827   0.0000000), wk =   0.0151515
        k(    4) = (   0.0306122   0.0176740   0.0000000), wk =   0.0151515
        k(    5) = (   0.0408163   0.0235653   0.0000000), wk =   0.0151515
        k(    6) = (   0.0510204   0.0294566   0.0000000), wk =   0.0151515
        k(    7) = (   0.0612245   0.0353480   0.0000000), wk =   0.0151515
        k(    8) = (   0.0714286   0.0412393   0.0000000), wk =   0.0151515
        k(    9) = (   0.0816327   0.0471306   0.0000000), wk =   0.0151515
        k(   10) = (   0.0918367   0.0530220   0.0000000), wk =   0.0151515
        k(   11) = (   0.1020408   0.0589133   0.0000000), wk =   0.0151515
        k(   12) = (   0.1122449   0.0648046   0.0000000), wk =   0.0151515
        k(   13) = (   0.1224490   0.0706960   0.0000000), wk =   0.0151515
        k(   14) = (   0.1326531   0.0765873   0.0000000), wk =   0.0151515
        k(   15) = (   0.1428571   0.0824786   0.0000000), wk =   0.0151515
        k(   16) = (   0.1530612   0.0883699   0.0000000), wk =   0.0151515
        k(   17) = (   0.1632653   0.0942613   0.0000000), wk =   0.0151515
        k(   18) = (   0.1734694   0.1001526   0.0000000), wk =   0.0151515
        k(   19) = (   0.1836735   0.1060439   0.0000000), wk =   0.0151515
        k(   20) = (   0.1938776   0.1119353   0.0000000), wk =   0.0151515
        k(   21) = (   0.2040816   0.1178266   0.0000000), wk =   0.0151515
        k(   22) = (   0.2142857   0.1237179   0.0000000), wk =   0.0151515
        k(   23) = (   0.2244898   0.1296092   0.0000000), wk =   0.0151515
        k(   24) = (   0.2346939   0.1355006   0.0000000), wk =   0.0151515
        k(   25) = (   0.2448980   0.1413919   0.0000000), wk =   0.0151515
        k(   26) = (   0.2551020   0.1472832   0.0000000), wk =   0.0151515
        k(   27) = (   0.2653061   0.1531746   0.0000000), wk =   0.0151515
        k(   28) = (   0.2755102   0.1590659   0.0000000), wk =   0.0151515
        k(   29) = (   0.2857143   0.1649572   0.0000000), wk =   0.0151515
        k(   30) = (   0.2959184   0.1708485   0.0000000), wk =   0.0151515
        k(   31) = (   0.3061224   0.1767399   0.0000000), wk =   0.0151515
        k(   32) = (   0.3163265   0.1826312   0.0000000), wk =   0.0151515
        k(   33) = (   0.3265306   0.1885225   0.0000000), wk =   0.0151515
        k(   34) = (   0.3367347   0.1944139   0.0000000), wk =   0.0151515
        k(   35) = (   0.3469388   0.2003052   0.0000000), wk =   0.0151515
        k(   36) = (   0.3571429   0.2061965   0.0000000), wk =   0.0151515
        k(   37) = (   0.3673469   0.2120879   0.0000000), wk =   0.0151515
        k(   38) = (   0.3775510   0.2179792   0.0000000), wk =   0.0151515
        k(   39) = (   0.3877551   0.2238705   0.0000000), wk =   0.0151515
        k(   40) = (   0.3979592   0.2297618   0.0000000), wk =   0.0151515
        k(   41) = (   0.4081633   0.2356532   0.0000000), wk =   0.0151515
        k(   42) = (   0.4183673   0.2415445   0.0000000), wk =   0.0151515
        k(   43) = (   0.4285714   0.2474358   0.0000000), wk =   0.0151515
        k(   44) = (   0.4387755   0.2533272   0.0000000), wk =   0.0151515
        k(   45) = (   0.4489796   0.2592185   0.0000000), wk =   0.0151515
        k(   46) = (   0.4591837   0.2651098   0.0000000), wk =   0.0151515
        k(   47) = (   0.4693878   0.2710011   0.0000000), wk =   0.0151515
        k(   48) = (   0.4795918   0.2768925   0.0000000), wk =   0.0151515
        k(   49) = (   0.4897959   0.2827838   0.0000000), wk =   0.0151515
        k(   50) = (   0.5000000   0.2886751   0.0000000), wk =   0.0151515
        k(   51) = (   0.4953704   0.2966939   0.0000000), wk =   0.0151515
        k(   52) = (   0.4907407   0.3047126   0.0000000), wk =   0.0151515
        k(   53) = (   0.4861111   0.3127314   0.0000000), wk =   0.0151515
        k(   54) = (   0.4814815   0.3207501   0.0000000), wk =   0.0151515
        k(   55) = (   0.4768519   0.3287689   0.0000000), wk =   0.0151515
        k(   56) = (   0.4722222   0.3367877   0.0000000), wk =   0.0151515
        k(   57) = (   0.4675926   0.3448064   0.0000000), wk =   0.0151515
        k(   58) = (   0.4629630   0.3528252   0.0000000), wk =   0.0151515
        k(   59) = (   0.4583333   0.3608439   0.0000000), wk =   0.0151515
        k(   60) = (   0.4537037   0.3688627   0.0000000), wk =   0.0151515
        k(   61) = (   0.4490741   0.3768814   0.0000000), wk =   0.0151515
        k(   62) = (   0.4444444   0.3849002   0.0000000), wk =   0.0151515
        k(   63) = (   0.4398148   0.3929189   0.0000000), wk =   0.0151515
        k(   64) = (   0.4351852   0.4009377   0.0000000), wk =   0.0151515
        k(   65) = (   0.4305556   0.4089564   0.0000000), wk =   0.0151515
        k(   66) = (   0.4259259   0.4169752   0.0000000), wk =   0.0151515
        k(   67) = (   0.4212963   0.4249939   0.0000000), wk =   0.0151515
        k(   68) = (   0.4166667   0.4330127   0.0000000), wk =   0.0151515
        k(   69) = (   0.4120370   0.4410315   0.0000000), wk =   0.0151515
        k(   70) = (   0.4074074   0.4490502   0.0000000), wk =   0.0151515
        k(   71) = (   0.4027778   0.4570690   0.0000000), wk =   0.0151515
        k(   72) = (   0.3981481   0.4650877   0.0000000), wk =   0.0151515
        k(   73) = (   0.3935185   0.4731065   0.0000000), wk =   0.0151515
        k(   74) = (   0.3888889   0.4811252   0.0000000), wk =   0.0151515
        k(   75) = (   0.3842593   0.4891440   0.0000000), wk =   0.0151515
        k(   76) = (   0.3796296   0.4971627   0.0000000), wk =   0.0151515
        k(   77) = (   0.3750000   0.5051815   0.0000000), wk =   0.0151515
        k(   78) = (   0.3703704   0.5132002   0.0000000), wk =   0.0151515
        k(   79) = (   0.3657407   0.5212190   0.0000000), wk =   0.0151515
        k(   80) = (   0.3611111   0.5292377   0.0000000), wk =   0.0151515
        k(   81) = (   0.3564815   0.5372565   0.0000000), wk =   0.0151515
        k(   82) = (   0.3518519   0.5452753   0.0000000), wk =   0.0151515
        k(   83) = (   0.3472222   0.5532940   0.0000000), wk =   0.0151515
        k(   84) = (   0.3425926   0.5613128   0.0000000), wk =   0.0151515
        k(   85) = (   0.3379630   0.5693315   0.0000000), wk =   0.0151515
        k(   86) = (   0.3333333   0.5773503   0.0000000), wk =   0.0151515
        k(   87) = (   0.3260870   0.5647992   0.0000000), wk =   0.0151515
        k(   88) = (   0.3188406   0.5522481   0.0000000), wk =   0.0151515
        k(   89) = (   0.3115942   0.5396970   0.0000000), wk =   0.0151515
        k(   90) = (   0.3043478   0.5271459   0.0000000), wk =   0.0151515
        k(   91) = (   0.2971014   0.5145948   0.0000000), wk =   0.0151515
        k(   92) = (   0.2898551   0.5020437   0.0000000), wk =   0.0151515
        k(   93) = (   0.2826087   0.4894926   0.0000000), wk =   0.0151515
        k(   94) = (   0.2753623   0.4769415   0.0000000), wk =   0.0151515
        k(   95) = (   0.2681159   0.4643904   0.0000000), wk =   0.0151515
        k(   96) = (   0.2608696   0.4518393   0.0000000), wk =   0.0151515
        k(   97) = (   0.2536232   0.4392882   0.0000000), wk =   0.0151515
        k(   98) = (   0.2463768   0.4267372   0.0000000), wk =   0.0151515
        k(   99) = (   0.2391304   0.4141861   0.0000000), wk =   0.0151515
        k(  100) = (   0.2318841   0.4016350   0.0000000), wk =   0.0151515
        k(  101) = (   0.2246377   0.3890839   0.0000000), wk =   0.0151515
        k(  102) = (   0.2173913   0.3765328   0.0000000), wk =   0.0151515
        k(  103) = (   0.2101449   0.3639817   0.0000000), wk =   0.0151515
        k(  104) = (   0.2028986   0.3514306   0.0000000), wk =   0.0151515
        k(  105) = (   0.1956522   0.3388795   0.0000000), wk =   0.0151515
        k(  106) = (   0.1884058   0.3263284   0.0000000), wk =   0.0151515
        k(  107) = (   0.1811594   0.3137773   0.0000000), wk =   0.0151515
        k(  108) = (   0.1739130   0.3012262   0.0000000), wk =   0.0151515
        k(  109) = (   0.1666667   0.2886751   0.0000000), wk =   0.0151515
        k(  110) = (   0.1594203   0.2761240   0.0000000), wk =   0.0151515
        k(  111) = (   0.1521739   0.2635729   0.0000000), wk =   0.0151515
        k(  112) = (   0.1449275   0.2510219   0.0000000), wk =   0.0151515
        k(  113) = (   0.1376812   0.2384708   0.0000000), wk =   0.0151515
        k(  114) = (   0.1304348   0.2259197   0.0000000), wk =   0.0151515
        k(  115) = (   0.1231884   0.2133686   0.0000000), wk =   0.0151515
        k(  116) = (   0.1159420   0.2008175   0.0000000), wk =   0.0151515
        k(  117) = (   0.1086957   0.1882664   0.0000000), wk =   0.0151515
        k(  118) = (   0.1014493   0.1757153   0.0000000), wk =   0.0151515
        k(  119) = (   0.0942029   0.1631642   0.0000000), wk =   0.0151515
        k(  120) = (   0.0869565   0.1506131   0.0000000), wk =   0.0151515
        k(  121) = (   0.0797101   0.1380620   0.0000000), wk =   0.0151515
        k(  122) = (   0.0724638   0.1255109   0.0000000), wk =   0.0151515
        k(  123) = (   0.0652174   0.1129598   0.0000000), wk =   0.0151515
        k(  124) = (   0.0579710   0.1004087   0.0000000), wk =   0.0151515
        k(  125) = (   0.0507246   0.0878576   0.0000000), wk =   0.0151515
        k(  126) = (   0.0434783   0.0753066   0.0000000), wk =   0.0151515
        k(  127) = (   0.0362319   0.0627555   0.0000000), wk =   0.0151515
        k(  128) = (   0.0289855   0.0502044   0.0000000), wk =   0.0151515
        k(  129) = (   0.0217391   0.0376533   0.0000000), wk =   0.0151515
        k(  130) = (   0.0144928   0.0251022   0.0000000), wk =   0.0151515
        k(  131) = (   0.0072464   0.0125511   0.0000000), wk =   0.0151515
        k(  132) = (   0.0000000   0.0000000   0.0000000), wk =   0.0151515

                       cryst. coord.
        k(    1) = (   0.0000000   0.0000000   0.0000000), wk =   0.0151515
        k(    2) = (   0.0102041  -0.0000000   0.0000000), wk =   0.0151515
        k(    3) = (   0.0204082  -0.0000000   0.0000000), wk =   0.0151515
        k(    4) = (   0.0306122  -0.0000000   0.0000000), wk =   0.0151515
        k(    5) = (   0.0408163  -0.0000000   0.0000000), wk =   0.0151515
        k(    6) = (   0.0510204  -0.0000000   0.0000000), wk =   0.0151515
        k(    7) = (   0.0612245  -0.0000000   0.0000000), wk =   0.0151515
        k(    8) = (   0.0714286  -0.0000000   0.0000000), wk =   0.0151515
        k(    9) = (   0.0816327  -0.0000000   0.0000000), wk =   0.0151515
        k(   10) = (   0.0918367  -0.0000000   0.0000000), wk =   0.0151515
        k(   11) = (   0.1020408  -0.0000000   0.0000000), wk =   0.0151515
        k(   12) = (   0.1122449  -0.0000000   0.0000000), wk =   0.0151515
        k(   13) = (   0.1224490  -0.0000000   0.0000000), wk =   0.0151515
        k(   14) = (   0.1326531  -0.0000000   0.0000000), wk =   0.0151515
        k(   15) = (   0.1428571  -0.0000000   0.0000000), wk =   0.0151515
        k(   16) = (   0.1530612  -0.0000000   0.0000000), wk =   0.0151515
        k(   17) = (   0.1632653  -0.0000000   0.0000000), wk =   0.0151515
        k(   18) = (   0.1734694  -0.0000000   0.0000000), wk =   0.0151515
        k(   19) = (   0.1836735  -0.0000000   0.0000000), wk =   0.0151515
        k(   20) = (   0.1938776  -0.0000000   0.0000000), wk =   0.0151515
        k(   21) = (   0.2040816  -0.0000000   0.0000000), wk =   0.0151515
        k(   22) = (   0.2142857  -0.0000000   0.0000000), wk =   0.0151515
        k(   23) = (   0.2244898  -0.0000000   0.0000000), wk =   0.0151515
        k(   24) = (   0.2346939  -0.0000000   0.0000000), wk =   0.0151515
        k(   25) = (   0.2448980  -0.0000000   0.0000000), wk =   0.0151515
        k(   26) = (   0.2551020  -0.0000000   0.0000000), wk =   0.0151515
        k(   27) = (   0.2653061  -0.0000000   0.0000000), wk =   0.0151515
        k(   28) = (   0.2755102  -0.0000000   0.0000000), wk =   0.0151515
        k(   29) = (   0.2857143  -0.0000000   0.0000000), wk =   0.0151515
        k(   30) = (   0.2959184  -0.0000000   0.0000000), wk =   0.0151515
        k(   31) = (   0.3061224  -0.0000000   0.0000000), wk =   0.0151515
        k(   32) = (   0.3163265  -0.0000000   0.0000000), wk =   0.0151515
        k(   33) = (   0.3265306  -0.0000000   0.0000000), wk =   0.0151515
        k(   34) = (   0.3367347  -0.0000000   0.0000000), wk =   0.0151515
        k(   35) = (   0.3469388  -0.0000000   0.0000000), wk =   0.0151515
        k(   36) = (   0.3571429  -0.0000000   0.0000000), wk =   0.0151515
        k(   37) = (   0.3673469  -0.0000000   0.0000000), wk =   0.0151515
        k(   38) = (   0.3775510  -0.0000000   0.0000000), wk =   0.0151515
        k(   39) = (   0.3877551  -0.0000000   0.0000000), wk =   0.0151515
        k(   40) = (   0.3979592  -0.0000000   0.0000000), wk =   0.0151515
        k(   41) = (   0.4081633  -0.0000000   0.0000000), wk =   0.0151515
        k(   42) = (   0.4183673  -0.0000000   0.0000000), wk =   0.0151515
        k(   43) = (   0.4285714  -0.0000000   0.0000000), wk =   0.0151515
        k(   44) = (   0.4387755  -0.0000000   0.0000000), wk =   0.0151515
        k(   45) = (   0.4489796  -0.0000000   0.0000000), wk =   0.0151515
        k(   46) = (   0.4591837  -0.0000000   0.0000000), wk =   0.0151515
        k(   47) = (   0.4693878  -0.0000000   0.0000000), wk =   0.0151515
        k(   48) = (   0.4795918  -0.0000000   0.0000000), wk =   0.0151515
        k(   49) = (   0.4897959  -0.0000000   0.0000000), wk =   0.0151515
        k(   50) = (   0.5000000  -0.0000000   0.0000000), wk =   0.0151515
        k(   51) = (   0.4953704   0.0092593   0.0000000), wk =   0.0151515
        k(   52) = (   0.4907407   0.0185185   0.0000000), wk =   0.0151515
        k(   53) = (   0.4861111   0.0277778   0.0000000), wk =   0.0151515
        k(   54) = (   0.4814815   0.0370370   0.0000000), wk =   0.0151515
        k(   55) = (   0.4768519   0.0462963   0.0000000), wk =   0.0151515
        k(   56) = (   0.4722222   0.0555556   0.0000000), wk =   0.0151515
        k(   57) = (   0.4675926   0.0648148   0.0000000), wk =   0.0151515
        k(   58) = (   0.4629630   0.0740741   0.0000000), wk =   0.0151515
        k(   59) = (   0.4583333   0.0833333   0.0000000), wk =   0.0151515
        k(   60) = (   0.4537037   0.0925926   0.0000000), wk =   0.0151515
        k(   61) = (   0.4490741   0.1018519   0.0000000), wk =   0.0151515
        k(   62) = (   0.4444444   0.1111111   0.0000000), wk =   0.0151515
        k(   63) = (   0.4398148   0.1203704   0.0000000), wk =   0.0151515
        k(   64) = (   0.4351852   0.1296296   0.0000000), wk =   0.0151515
        k(   65) = (   0.4305556   0.1388889   0.0000000), wk =   0.0151515
        k(   66) = (   0.4259259   0.1481481   0.0000000), wk =   0.0151515
        k(   67) = (   0.4212963   0.1574074   0.0000000), wk =   0.0151515
        k(   68) = (   0.4166667   0.1666667   0.0000000), wk =   0.0151515
        k(   69) = (   0.4120370   0.1759259   0.0000000), wk =   0.0151515
        k(   70) = (   0.4074074   0.1851852   0.0000000), wk =   0.0151515
        k(   71) = (   0.4027778   0.1944444   0.0000000), wk =   0.0151515
        k(   72) = (   0.3981481   0.2037037   0.0000000), wk =   0.0151515
        k(   73) = (   0.3935185   0.2129630   0.0000000), wk =   0.0151515
        k(   74) = (   0.3888889   0.2222222   0.0000000), wk =   0.0151515
        k(   75) = (   0.3842593   0.2314815   0.0000000), wk =   0.0151515
        k(   76) = (   0.3796296   0.2407407   0.0000000), wk =   0.0151515
        k(   77) = (   0.3750000   0.2500000   0.0000000), wk =   0.0151515
        k(   78) = (   0.3703704   0.2592593   0.0000000), wk =   0.0151515
        k(   79) = (   0.3657407   0.2685185   0.0000000), wk =   0.0151515
        k(   80) = (   0.3611111   0.2777778   0.0000000), wk =   0.0151515
        k(   81) = (   0.3564815   0.2870370   0.0000000), wk =   0.0151515
        k(   82) = (   0.3518519   0.2962963   0.0000000), wk =   0.0151515
        k(   83) = (   0.3472222   0.3055556   0.0000000), wk =   0.0151515
        k(   84) = (   0.3425926   0.3148148   0.0000000), wk =   0.0151515
        k(   85) = (   0.3379630   0.3240741   0.0000000), wk =   0.0151515
        k(   86) = (   0.3333333   0.3333333   0.0000000), wk =   0.0151515
        k(   87) = (   0.3260870   0.3260870   0.0000000), wk =   0.0151515
        k(   88) = (   0.3188406   0.3188406   0.0000000), wk =   0.0151515
        k(   89) = (   0.3115942   0.3115942   0.0000000), wk =   0.0151515
        k(   90) = (   0.3043478   0.3043478   0.0000000), wk =   0.0151515
        k(   91) = (   0.2971014   0.2971014   0.0000000), wk =   0.0151515
        k(   92) = (   0.2898551   0.2898551   0.0000000), wk =   0.0151515
        k(   93) = (   0.2826087   0.2826087   0.0000000), wk =   0.0151515
        k(   94) = (   0.2753623   0.2753623   0.0000000), wk =   0.0151515
        k(   95) = (   0.2681159   0.2681159   0.0000000), wk =   0.0151515
        k(   96) = (   0.2608696   0.2608696   0.0000000), wk =   0.0151515
        k(   97) = (   0.2536232   0.2536232   0.0000000), wk =   0.0151515
        k(   98) = (   0.2463768   0.2463768   0.0000000), wk =   0.0151515
        k(   99) = (   0.2391304   0.2391304   0.0000000), wk =   0.0151515
        k(  100) = (   0.2318841   0.2318841   0.0000000), wk =   0.0151515
        k(  101) = (   0.2246377   0.2246377   0.0000000), wk =   0.0151515
        k(  102) = (   0.2173913   0.2173913   0.0000000), wk =   0.0151515
        k(  103) = (   0.2101449   0.2101449   0.0000000), wk =   0.0151515
        k(  104) = (   0.2028986   0.2028986   0.0000000), wk =   0.0151515
        k(  105) = (   0.1956522   0.1956522   0.0000000), wk =   0.0151515
        k(  106) = (   0.1884058   0.1884058   0.0000000), wk =   0.0151515
        k(  107) = (   0.1811594   0.1811594   0.0000000), wk =   0.0151515
        k(  108) = (   0.1739130   0.1739130   0.0000000), wk =   0.0151515
        k(  109) = (   0.1666667   0.1666667   0.0000000), wk =   0.0151515
        k(  110) = (   0.1594203   0.1594203   0.0000000), wk =   0.0151515
        k(  111) = (   0.1521739   0.1521739   0.0000000), wk =   0.0151515
        k(  112) = (   0.1449275   0.1449275   0.0000000), wk =   0.0151515
        k(  113) = (   0.1376812   0.1376812   0.0000000), wk =   0.0151515
        k(  114) = (   0.1304348   0.1304348   0.0000000), wk =   0.0151515
        k(  115) = (   0.1231884   0.1231884   0.0000000), wk =   0.0151515
        k(  116) = (   0.1159420   0.1159420   0.0000000), wk =   0.0151515
        k(  117) = (   0.1086957   0.1086957   0.0000000), wk =   0.0151515
        k(  118) = (   0.1014493   0.1014493   0.0000000), wk =   0.0151515
        k(  119) = (   0.0942029   0.0942029   0.0000000), wk =   0.0151515
        k(  120) = (   0.0869565   0.0869565   0.0000000), wk =   0.0151515
        k(  121) = (   0.0797101   0.0797101   0.0000000), wk =   0.0151515
        k(  122) = (   0.0724638   0.0724638   0.0000000), wk =   0.0151515
        k(  123) = (   0.0652174   0.0652174   0.0000000), wk =   0.0151515
        k(  124) = (   0.0579710   0.0579710   0.0000000), wk =   0.0151515
        k(  125) = (   0.0507246   0.0507246   0.0000000), wk =   0.0151515
        k(  126) = (   0.0434783   0.0434783   0.0000000), wk =   0.0151515
        k(  127) = (   0.0362319   0.0362319   0.0000000), wk =   0.0151515
        k(  128) = (   0.0289855   0.0289855   0.0000000), wk =   0.0151515
        k(  129) = (   0.0217391   0.0217391   0.0000000), wk =   0.0151515
        k(  130) = (   0.0144928   0.0144928   0.0000000), wk =   0.0151515
        k(  131) = (   0.0072464   0.0072464   0.0000000), wk =   0.0151515
        k(  132) = (   0.0000000   0.0000000   0.0000000), wk =   0.0151515

     Dense  grid:   221429 G-vectors     FFT dimensions: (  45,  45, 240)

     Smooth grid:    78417 G-vectors     FFT dimensions: (  36,  36, 180)

     Largest allocated arrays     est. size (Mb)     dimensions
        Kohn-Sham Wavefunctions         0.35 Mb     (    1645,   14)
        NL pseudopotentials             0.78 Mb     (    1645,   31)
        Each V/rho on FFT grid          1.24 Mb     (   81000)
        Each G-vector array             0.28 Mb     (   36898)
        G-vector shells                 0.07 Mb     (    9049)
     Largest temporary arrays     est. size (Mb)     dimensions
        Each subspace H/S matrix        0.00 Mb     (      14,   14)
        Each <psi_i|beta_j> matrix      0.01 Mb     (      31,   14)

     The potential is recalculated from file :
     ./out/aiida.save/charge-density.xml


     negative rho (up, down):  2.667E-04 0.000E+00
     Starting wfc are   13 randomized atomic wfcs +    1 random wfc
     Checking if some PAW data can be deallocated... 
       node    0, deallocated PAW data for type:  1
       node    1, deallocated PAW data for type:  1
       node    2, deallocated PAW data for type:  1
       node    3, deallocated PAW data for type:  1
       node    4, deallocated PAW data for type:  1
       node    5, deallocated PAW data for type:  1
       node    6, deallocated PAW data for type:  1
       node    7, deallocated PAW data for type:  1
       node    8, deallocated PAW data for type:  1
       node    9, deallocated PAW data for type:  1
       node   10, deallocated PAW data for type:  1
       node   11, deallocated PAW data for type:  1
       node   12, deallocated PAW data for type:  1
       node   13, deallocated PAW data for type:  1
       node   14, deallocated PAW data for type:  1
       node   15, deallocated PAW data for type:  1
       node   16, deallocated PAW data for type:  1
       node   17, deallocated PAW data for type:  1
       node   18, deallocated PAW data for type:  1
       node   19, deallocated PAW data for type:  1
       node   20, deallocated PAW data for type:  1
       node   21, deallocated PAW data for type:  1
       node   22, deallocated PAW data for type:  1
       node   23, deallocated PAW data for type:  1
       node   24, deallocated PAW data for type:  1
       node   25, deallocated PAW data for type:  1
       node   26, deallocated PAW data for type:  1
       node   27, deallocated PAW data for type:  1
       node   28, deallocated PAW data for type:  1
       node   29, deallocated PAW data for type:  1
       node   30, deallocated PAW data for type:  1
       node   31, deallocated PAW data for type:  1
       node   32, deallocated PAW data for type:  1
       node   33, deallocated PAW data for type:  1
       node   34, deallocated PAW data for type:  1
       node   35, deallocated PAW data for type:  1

     Band Structure Calculation
     CG style diagonalization

     Computing kpt #:     1
     total cpu time spent up to now is        6.6 secs

     Computing kpt #:     2
     total cpu time spent up to now is        8.5 secs

     Computing kpt #:     3
     total cpu time spent up to now is       10.4 secs

     Computing kpt #:     4
     total cpu time spent up to now is       12.4 secs

     Computing kpt #:     5
     total cpu time spent up to now is       14.2 secs

     Computing kpt #:     6
     total cpu time spent up to now is       15.9 secs

     Computing kpt #:     7
     total cpu time spent up to now is       17.7 secs

     Computing kpt #:     8
     total cpu time spent up to now is       19.4 secs

     Computing kpt #:     9
     total cpu time spent up to now is       21.2 secs

     Computing kpt #:    10
     total cpu time spent up to now is       23.0 secs

     Computing kpt #:    11
     total cpu time spent up to now is       24.7 secs

     ethr =  1.00E-11,  avg # of iterations = 66.0

     total cpu time spent up to now is       24.7 secs

     End of band structure calculation

          k = 0.0000 0.0000 0.0000 (  9797 PWs)   bands (ev):

   -21.2051 -21.2051 -21.1444 -21.1444 -21.1437 -16.1045 -11.6280  -5.4028
    -4.8679  -4.8679  -3.2247  -1.1841  -1.1841  -0.7627

          k = 0.0102 0.0059 0.0000 (  9759 PWs)   bands (ev):

   -21.2051 -21.2050 -21.1444 -21.1444 -21.1437 -16.1036 -11.6280  -5.4032
    -4.8764  -4.8695  -3.2174  -1.1890  -1.1828  -0.7610

          k = 0.0204 0.0118 0.0000 (  9748 PWs)   bands (ev):

   -21.2051 -21.2049 -21.1446 -21.1444 -21.1435 -16.1009 -11.6282  -5.4045
    -4.9013  -4.8743  -3.1964  -1.2034  -1.1791  -0.7561

          k = 0.0306 0.0177 0.0000 (  9750 PWs)   bands (ev):

   -21.2053 -21.2047 -21.1448 -21.1444 -21.1433 -16.0964 -11.6285  -5.4071
    -4.9405  -4.8823  -3.1633  -1.2263  -1.1730  -0.7480

          k = 0.0408 0.0236 0.0000 (  9748 PWs)   bands (ev):

   -21.2055 -21.2044 -21.1450 -21.1444 -21.1431 -16.0900 -11.6290  -5.4117
    -4.9911  -4.8934  -3.1209  -1.2563  -1.1646  -0.7366

          k = 0.0510 0.0295 0.0000 (  9744 PWs)   bands (ev):

   -21.2057 -21.2040 -21.1454 -21.1444 -21.1428 -16.0819 -11.6297  -5.4198
    -5.0493  -4.9074  -3.0721  -1.2916  -1.1541  -0.7222

          k = 0.0612 0.0353 0.0000 (  9746 PWs)   bands (ev):

   -21.2060 -21.2036 -21.1457 -21.1445 -21.1425 -16.0720 -11.6306  -5.4339
    -5.1102  -4.9242  -3.0200  -1.3300  -1.1417  -0.7047

          k = 0.0714 0.0412 0.0000 (  9744 PWs)   bands (ev):

   -21.2064 -21.2031 -21.1462 -21.1445 -21.1421 -16.0603 -11.6318  -5.4583
    -5.1676  -4.9437  -2.9676  -1.3695  -1.1276  -0.6841

          k = 0.0816 0.0471 0.0000 (  9736 PWs)   bands (ev):

   -21.2068 -21.2025 -21.1466 -21.1446 -21.1417 -16.0468 -11.6332  -5.4981
    -5.2147  -4.9657  -2.9177  -1.4078  -1.1122  -0.6606

          k = 0.0918 0.0530 0.0000 (  9742 PWs)   bands (ev):

   -21.2072 -21.2018 -21.1472 -21.1446 -21.1413 -16.0316 -11.6351  -5.5557
    -5.2475  -4.9899  -2.8731  -1.4425  -1.0956  -0.6342

          k = 0.1020 0.0589 0.0000 (  9742 PWs)   bands (ev):

   -21.2078 -21.2011 -21.1477 -21.1447 -21.1408 -16.0147 -11.6374  -5.6286
    -5.2677  -5.0163  -2.8360  -1.4716  -1.0782  -0.6050

          k = 0.1122 0.0648 0.0000 (  9732 PWs)   bands (ev):

   -21.2083 -21.2003 -21.1483 -21.1447 -21.1403 -15.9960 -11.6402  -5.7118
    -5.2792  -5.0445  -2.8084  -1.4933  -1.0603  -0.5732

          k = 0.1224 0.0707 0.0000 (  9734 PWs)   bands (ev):

   -21.2089 -21.1994 -21.1490 -21.1448 -21.1397 -15.9757 -11.6437  -5.8010
    -5.2858  -5.0744  -2.7918  -1.5065  -1.0422  -0.5391

          k = 0.1327 0.0766 0.0000 (  9744 PWs)   bands (ev):

   -21.2096 -21.1985 -21.1497 -21.1448 -21.1391 -15.9537 -11.6478  -5.8935
    -5.2896  -5.1057  -2.7865  -1.5106  -1.0242  -0.5029

          k = 0.1429 0.0825 0.0000 (  9740 PWs)   bands (ev):

   -21.2103 -21.1976 -21.1504 -21.1449 -21.1384 -15.9301 -11.6526  -5.9875
    -5.2920  -5.1383  -2.7922  -1.5061  -1.0065  -0.4650

          k = 0.1531 0.0884 0.0000 (  9750 PWs)   bands (ev):

   -21.2111 -21.1966 -21.1512 -21.1450 -21.1377 -15.9050 -11.6584  -6.0816
    -5.2940  -5.1719  -2.8078  -1.4941  -0.9895  -0.4258

          k = 0.1633 0.0943 0.0000 (  9746 PWs)   bands (ev):

   -21.2119 -21.1955 -21.1519 -21.1450 -21.1370 -15.8782 -11.6651  -6.1751
    -5.2961  -5.2063  -2.8315  -1.4765  -0.9733  -0.3859

          k = 0.1735 0.1002 0.0000 (  9750 PWs)   bands (ev):

   -21.2128 -21.1944 -21.1527 -21.1450 -21.1362 -15.8500 -11.6729  -6.2672
    -5.2989  -5.2414  -2.8614  -1.4549  -0.9582  -0.3458

          k = 0.1837 0.1060 0.0000 (  9756 PWs)   bands (ev):

   -21.2137 -21.1933 -21.1536 -21.1451 -21.1354 -15.8203 -11.6819  -6.3574
    -5.3028  -5.2770  -2.8957  -1.4314  -0.9443  -0.3060

          k = 0.1939 0.1119 0.0000 (  9768 PWs)   bands (ev):

   -21.2147 -21.1922 -21.1544 -21.1451 -21.1346 -15.7892 -11.6921  -6.4452
    -5.3128  -5.3083  -2.9324  -1.4076  -0.9317  -0.2669

          k = 0.2041 0.1178 0.0000 (  9776 PWs)   bands (ev):

   -21.2157 -21.1911 -21.1552 -21.1452 -21.1337 -15.7568 -11.7037  -6.5302
    -5.3487  -5.3155  -2.9700  -1.3851  -0.9206  -0.2290

          k = 0.2143 0.1237 0.0000 (  9780 PWs)   bands (ev):

   -21.2167 -21.1899 -21.1561 -21.1452 -21.1329 -15.7231 -11.7167  -6.6122
    -5.3847  -5.3249  -3.0072  -1.3651  -0.9110  -0.1922

          k = 0.2245 0.1296 0.0000 (  9790 PWs)   bands (ev):

   -21.2177 -21.1887 -21.1569 -21.1452 -21.1320 -15.6881 -11.7313  -6.6908
    -5.4204  -5.3367  -3.0428  -1.3488  -0.9030  -0.1566

          k = 0.2347 0.1355 0.0000 (  9788 PWs)   bands (ev):

   -21.2188 -21.1875 -21.1577 -21.1452 -21.1311 -15.6520 -11.7474  -6.7657
    -5.4558  -5.3512  -3.0760  -1.3369  -0.8965  -0.1220

          k = 0.2449 0.1414 0.0000 (  9794 PWs)   bands (ev):

   -21.2199 -21.1864 -21.1585 -21.1452 -21.1302 -15.6148 -11.7653  -6.8367
    -5.4908  -5.3684  -3.1060  -1.3302  -0.8915  -0.0877

          k = 0.2551 0.1473 0.0000 (  9786 PWs)   bands (ev):

   -21.2210 -21.1852 -21.1593 -21.1451 -21.1293 -15.5767 -11.7848  -6.9037
    -5.5252  -5.3886  -3.1322  -1.3290  -0.8880  -0.0532

          k = 0.2653 0.1532 0.0000 (  9790 PWs)   bands (ev):

   -21.2221 -21.1841 -21.1601 -21.1450 -21.1284 -15.5377 -11.8060  -6.9664
    -5.5589  -5.4117  -3.1542  -1.3335  -0.8858  -0.0180

          k = 0.2755 0.1591 0.0000 (  9782 PWs)   bands (ev):

   -21.2233 -21.1830 -21.1609 -21.1449 -21.1274 -15.4979 -11.8289  -7.0248
    -5.5918  -5.4379  -3.1718  -1.3438  -0.8850   0.0186

          k = 0.2857 0.1650 0.0000 (  9796 PWs)   bands (ev):

   -21.2244 -21.1819 -21.1617 -21.1449 -21.1266 -15.4574 -11.8535  -7.0788
    -5.6239  -5.4668  -3.1848  -1.3596  -0.8853   0.0569

          k = 0.2959 0.1708 0.0000 (  9800 PWs)   bands (ev):

   -21.2255 -21.1809 -21.1624 -21.1448 -21.1257 -15.4164 -11.8797  -7.1283
    -5.6549  -5.4985  -3.1932  -1.3806  -0.8867   0.0973

          k = 0.3061 0.1767 0.0000 (  9802 PWs)   bands (ev):

   -21.2266 -21.1799 -21.1631 -21.1446 -21.1248 -15.3750 -11.9073  -7.1733
    -5.6850  -5.5327  -3.1969  -1.4063  -0.8890   0.1398

          k = 0.3163 0.1826 0.0000 (  9812 PWs)   bands (ev):

   -21.2277 -21.1790 -21.1638 -21.1445 -21.1239 -15.3335 -11.9364  -7.2138
    -5.7139  -5.5690  -3.1962  -1.4361  -0.8922   0.1842

          k = 0.3265 0.1885 0.0000 (  9816 PWs)   bands (ev):

   -21.2287 -21.1780 -21.1645 -21.1443 -21.1231 -15.2918 -11.9666  -7.2500
    -5.7416  -5.6072  -3.1913  -1.4694  -0.8960   0.2303

          k = 0.3367 0.1944 0.0000 (  9828 PWs)   bands (ev):

   -21.2298 -21.1772 -21.1651 -21.1441 -21.1223 -15.2503 -11.9979  -7.2818
    -5.7680  -5.6469  -3.1825  -1.5056  -0.9003   0.2775

          k = 0.3469 0.2003 0.0000 (  9822 PWs)   bands (ev):

   -21.2308 -21.1764 -21.1657 -21.1439 -21.1215 -15.2092 -12.0299  -7.3095
    -5.7931  -5.6876  -3.1700  -1.5440  -0.9051   0.3252

          k = 0.3571 0.2062 0.0000 (  9814 PWs)   bands (ev):

   -21.2318 -21.1756 -21.1663 -21.1437 -21.1208 -15.1686 -12.0625  -7.3331
    -5.8169  -5.7289  -3.1543  -1.5842  -0.9102   0.3722

          k = 0.3673 0.2121 0.0000 (  9806 PWs)   bands (ev):

   -21.2327 -21.1750 -21.1668 -21.1434 -21.1201 -15.1288 -12.0953  -7.3530
    -5.8392  -5.7704  -3.1357  -1.6255  -0.9154   0.4174

          k = 0.3776 0.2180 0.0000 (  9812 PWs)   bands (ev):

   -21.2335 -21.1743 -21.1673 -21.1432 -21.1194 -15.0901 -12.1279  -7.3694
    -5.8600  -5.8116  -3.1147  -1.6674  -0.9207   0.4592

          k = 0.3878 0.2239 0.0000 (  9812 PWs)   bands (ev):

   -21.2344 -21.1738 -21.1678 -21.1430 -21.1188 -15.0527 -12.1601  -7.3825
    -5.8793  -5.8520  -3.0918  -1.7094  -0.9260   0.4959

          k = 0.3980 0.2298 0.0000 (  9802 PWs)   bands (ev):

   -21.2351 -21.1732 -21.1682 -21.1427 -21.1182 -15.0170 -12.1915  -7.3927
    -5.8970  -5.8911  -3.0673  -1.7510  -0.9312   0.5261

          k = 0.4082 0.2357 0.0000 (  9806 PWs)   bands (ev):

   -21.2358 -21.1728 -21.1686 -21.1425 -21.1176 -14.9833 -12.2216  -7.4003
    -5.9284  -5.9132  -3.0419  -1.7917  -0.9361   0.5487

          k = 0.4184 0.2415 0.0000 (  9806 PWs)   bands (ev):

   -21.2364 -21.1724 -21.1690 -21.1423 -21.1172 -14.9519 -12.2501  -7.4057
    -5.9636  -5.9277  -3.0161  -1.8309  -0.9407   0.5639

          k = 0.4286 0.2474 0.0000 (  9808 PWs)   bands (ev):

   -21.2370 -21.1720 -21.1693 -21.1421 -21.1167 -14.9231 -12.2765  -7.4092
    -5.9960  -5.9406  -2.9906  -1.8680  -0.9449   0.5725

          k = 0.4388 0.2533 0.0000 (  9806 PWs)   bands (ev):

   -21.2375 -21.1717 -21.1695 -21.1419 -21.1163 -14.8973 -12.3004  -7.4112
    -6.0252  -5.9518  -2.9660  -1.9025  -0.9487   0.5760

          k = 0.4490 0.2592 0.0000 (  9814 PWs)   bands (ev):

   -21.2379 -21.1715 -21.1698 -21.1417 -21.1160 -14.8748 -12.3214  -7.4121
    -6.0509  -5.9613  -2.9432  -1.9336  -0.9520   0.5762

          k = 0.4592 0.2651 0.0000 (  9826 PWs)   bands (ev):

   -21.2383 -21.1713 -21.1700 -21.1416 -21.1158 -14.8559 -12.3391  -7.4123
    -6.0725  -5.9691  -2.9229  -1.9605  -0.9548   0.5744

          k = 0.4694 0.2710 0.0000 (  9816 PWs)   bands (ev):

   -21.2386 -21.1712 -21.1701 -21.1415 -21.1155 -14.8409 -12.3533  -7.4120
    -6.0897  -5.9752  -2.9059  -1.9826  -0.9570   0.5718

          k = 0.4796 0.2769 0.0000 (  9818 PWs)   bands (ev):

   -21.2388 -21.1711 -21.1702 -21.1414 -21.1154 -14.8300 -12.3637  -7.4117
    -6.1023  -5.9796  -2.8931  -1.9990  -0.9586   0.5695

          k = 0.4898 0.2828 0.0000 (  9814 PWs)   bands (ev):

   -21.2389 -21.1710 -21.1703 -21.1413 -21.1153 -14.8234 -12.3700  -7.4113
    -6.1099  -5.9822  -2.8851  -2.0092  -0.9595   0.5678

          k = 0.5000 0.2887 0.0000 (  9806 PWs)   bands (ev):

   -21.2389 -21.1710 -21.1703 -21.1413 -21.1153 -14.8212 -12.3721  -7.4112
    -6.1125  -5.9831  -2.8823  -2.0126  -0.9599   0.5672

          k = 0.4954 0.2967 0.0000 (  9814 PWs)   bands (ev):

   -21.2389 -21.1710 -21.1703 -21.1413 -21.1153 -14.8209 -12.3722  -7.4110
    -6.1135  -5.9847  -2.8796  -2.0115  -0.9630   0.5684

          k = 0.4907 0.3047 0.0000 (  9814 PWs)   bands (ev):

   -21.2388 -21.1712 -21.1701 -21.1414 -21.1153 -14.8198 -12.3725  -7.4105
    -6.1169  -5.9894  -2.8716  -2.0079  -0.9725   0.5722

          k = 0.4861 0.3127 0.0000 (  9814 PWs)   bands (ev):

   -21.2387 -21.1714 -21.1699 -21.1415 -21.1153 -14.8180 -12.3731  -7.4096
    -6.1230  -5.9964  -2.8585  -2.0019  -0.9878   0.5784

          k = 0.4815 0.3208 0.0000 (  9812 PWs)   bands (ev):

   -21.2385 -21.1716 -21.1698 -21.1416 -21.1153 -14.8156 -12.3739  -7.4084
    -6.1325  -6.0049  -2.8411  -1.9933  -1.0087   0.5872

          k = 0.4769 0.3288 0.0000 (  9808 PWs)   bands (ev):

   -21.2383 -21.1719 -21.1695 -21.1417 -21.1153 -14.8124 -12.3749  -7.4069
    -6.1462  -6.0137  -2.8199  -1.9819  -1.0345   0.5986

          k = 0.4722 0.3368 0.0000 (  9804 PWs)   bands (ev):

   -21.2381 -21.1721 -21.1693 -21.1418 -21.1153 -14.8086 -12.3762  -7.4052
    -6.1646  -6.0216  -2.7960  -1.9673  -1.0644   0.6126

          k = 0.4676 0.3448 0.0000 (  9796 PWs)   bands (ev):

   -21.2378 -21.1724 -21.1691 -21.1420 -21.1153 -14.8041 -12.3777  -7.4033
    -6.1878  -6.0283  -2.7705  -1.9493  -1.0977   0.6292

          k = 0.4630 0.3528 0.0000 (  9800 PWs)   bands (ev):

   -21.2375 -21.1728 -21.1688 -21.1422 -21.1154 -14.7990 -12.3794  -7.4014
    -6.2153  -6.0335  -2.7444  -1.9276  -1.1336   0.6486

          k = 0.4583 0.3608 0.0000 (  9788 PWs)   bands (ev):

   -21.2371 -21.1731 -21.1686 -21.1425 -21.1154 -14.7932 -12.3815  -7.3995
    -6.2462  -6.0376  -2.7191  -1.9017  -1.1711   0.6708

          k = 0.4537 0.3689 0.0000 (  9792 PWs)   bands (ev):

   -21.2367 -21.1735 -21.1683 -21.1427 -21.1154 -14.7868 -12.3837  -7.3977
    -6.2797  -6.0407  -2.6955  -1.8715  -1.2095   0.6960

          k = 0.4491 0.3769 0.0000 (  9790 PWs)   bands (ev):

   -21.2363 -21.1739 -21.1680 -21.1430 -21.1154 -14.7799 -12.3863  -7.3962
    -6.3148  -6.0433  -2.6749  -1.8368  -1.2479   0.7242

          k = 0.4444 0.3849 0.0000 (  9786 PWs)   bands (ev):

   -21.2358 -21.1743 -21.1676 -21.1434 -21.1155 -14.7724 -12.3891  -7.3952
    -6.3507  -6.0455  -2.6580  -1.7977  -1.2855   0.7555

          k = 0.4398 0.3929 0.0000 (  9790 PWs)   bands (ev):

   -21.2353 -21.1747 -21.1673 -21.1437 -21.1155 -14.7644 -12.3922  -7.3947
    -6.3867  -6.0476  -2.6455  -1.7544  -1.3216   0.7901

          k = 0.4352 0.4009 0.0000 (  9814 PWs)   bands (ev):

   -21.2349 -21.1752 -21.1669 -21.1441 -21.1156 -14.7560 -12.3956  -7.3949
    -6.4221  -6.0497  -2.6378  -1.7074  -1.3555   0.8281

          k = 0.4306 0.4090 0.0000 (  9822 PWs)   bands (ev):

   -21.2344 -21.1757 -21.1665 -21.1445 -21.1156 -14.7471 -12.3992  -7.3962
    -6.4562  -6.0520  -2.6350  -1.6574  -1.3867   0.8696

          k = 0.4259 0.4170 0.0000 (  9826 PWs)   bands (ev):

   -21.2338 -21.1761 -21.1661 -21.1449 -21.1156 -14.7378 -12.4032  -7.3985
    -6.4884  -6.0546  -2.6370  -1.6051  -1.4147   0.9147

          k = 0.4213 0.4250 0.0000 (  9824 PWs)   bands (ev):

   -21.2333 -21.1766 -21.1657 -21.1453 -21.1157 -14.7282 -12.4074  -7.4022
    -6.5181  -6.0576  -2.6436  -1.5513  -1.4393   0.9635

          k = 0.4167 0.4330 0.0000 (  9822 PWs)   bands (ev):

   -21.2328 -21.1771 -21.1653 -21.1458 -21.1157 -14.7183 -12.4118  -7.4073
    -6.5450  -6.0611  -2.6544  -1.4970  -1.4603   1.0160

          k = 0.4120 0.4410 0.0000 (  9810 PWs)   bands (ev):

   -21.2323 -21.1775 -21.1648 -21.1462 -21.1157 -14.7082 -12.4166  -7.4139
    -6.5686  -6.0652  -2.6689  -1.4776  -1.4428   1.0721

          k = 0.4074 0.4491 0.0000 (  9814 PWs)   bands (ev):

   -21.2317 -21.1780 -21.1643 -21.1467 -21.1157 -14.6979 -12.4215  -7.4220
    -6.5888  -6.0699  -2.6866  -1.4913  -1.3897   1.1318

          k = 0.4028 0.4571 0.0000 (  9804 PWs)   bands (ev):

   -21.2312 -21.1784 -21.1638 -21.1472 -21.1158 -14.6875 -12.4266  -7.4317
    -6.6052  -6.0754  -2.7066  -1.5015  -1.3383   1.1948

          k = 0.3981 0.4651 0.0000 (  9796 PWs)   bands (ev):

   -21.2307 -21.1788 -21.1633 -21.1477 -21.1158 -14.6771 -12.4319  -7.4428
    -6.6179  -6.0817  -2.7286  -1.5085  -1.2893   1.2608

          k = 0.3935 0.4731 0.0000 (  9800 PWs)   bands (ev):

   -21.2303 -21.1793 -21.1628 -21.1482 -21.1158 -14.6667 -12.4374  -7.4551
    -6.6269  -6.0888  -2.7517  -1.5126  -1.2433   1.3292

          k = 0.3889 0.4811 0.0000 (  9790 PWs)   bands (ev):

   -21.2298 -21.1796 -21.1623 -21.1487 -21.1159 -14.6565 -12.4429  -7.4684
    -6.6324  -6.0967  -2.7755  -1.5141  -1.2007   1.3994

          k = 0.3843 0.4891 0.0000 (  9786 PWs)   bands (ev):

   -21.2294 -21.1800 -21.1617 -21.1492 -21.1159 -14.6465 -12.4485  -7.4823
    -6.6346  -6.1055  -2.7993  -1.5132  -1.1619   1.4700

          k = 0.3796 0.4972 0.0000 (  9782 PWs)   bands (ev):

   -21.2290 -21.1804 -21.1612 -21.1497 -21.1159 -14.6368 -12.4540  -7.4964
    -6.6338  -6.1151  -2.8225  -1.5104  -1.1271   1.5397

          k = 0.3750 0.5052 0.0000 (  9798 PWs)   bands (ev):

   -21.2287 -21.1807 -21.1607 -21.1502 -21.1160 -14.6276 -12.4595  -7.5105
    -6.6304  -6.1255  -2.8449  -1.5061  -1.0966   1.6061

          k = 0.3704 0.5132 0.0000 (  9794 PWs)   bands (ev):

   -21.2284 -21.1810 -21.1601 -21.1507 -21.1160 -14.6188 -12.4647  -7.5242
    -6.6248  -6.1365  -2.8658  -1.5005  -1.0704   1.6662

          k = 0.3657 0.5212 0.0000 (  9786 PWs)   bands (ev):

   -21.2281 -21.1812 -21.1596 -21.1512 -21.1160 -14.6107 -12.4698  -7.5372
    -6.6174  -6.1480  -2.8850  -1.4940  -1.0485   1.7166

          k = 0.3611 0.5292 0.0000 (  9790 PWs)   bands (ev):

   -21.2279 -21.1814 -21.1591 -21.1517 -21.1160 -14.6033 -12.4744  -7.5491
    -6.6087  -6.1597  -2.9022  -1.4870  -1.0308   1.7544

          k = 0.3565 0.5373 0.0000 (  9794 PWs)   bands (ev):

   -21.2277 -21.1816 -21.1586 -21.1522 -21.1160 -14.5968 -12.4787  -7.5598
    -6.5993  -6.1713  -2.9171  -1.4799  -1.0170   1.7793

          k = 0.3519 0.5453 0.0000 (  9794 PWs)   bands (ev):

   -21.2275 -21.1818 -21.1581 -21.1527 -21.1160 -14.5912 -12.4824  -7.5689
    -6.5899  -6.1823  -2.9296  -1.4731  -1.0069   1.7935

          k = 0.3472 0.5533 0.0000 (  9794 PWs)   bands (ev):

   -21.2274 -21.1819 -21.1577 -21.1531 -21.1160 -14.5866 -12.4855  -7.5762
    -6.5811  -6.1921  -2.9394  -1.4669  -1.0000   1.8006

          k = 0.3426 0.5613 0.0000 (  9806 PWs)   bands (ev):

   -21.2274 -21.1820 -21.1573 -21.1534 -21.1160 -14.5832 -12.4878  -7.5816
    -6.5738  -6.2001  -2.9465  -1.4619  -0.9958   1.8037

          k = 0.3380 0.5693 0.0000 (  9808 PWs)   bands (ev):

   -21.2273 -21.1820 -21.1571 -21.1537 -21.1160 -14.5811 -12.4893  -7.5849
    -6.5689  -6.2054  -2.9507  -1.4586  -0.9937   1.8048

          k = 0.3333 0.5774 0.0000 (  9822 PWs)   bands (ev):

   -21.2273 -21.1820 -21.1570 -21.1538 -21.1161 -14.5804 -12.4898  -7.5860
    -6.5671  -6.2074  -2.9522  -1.4574  -0.9932   1.8050

          k = 0.3261 0.5648 0.0000 (  9796 PWs)   bands (ev):

   -21.2273 -21.1820 -21.1572 -21.1536 -21.1160 -14.5823 -12.4884  -7.5832
    -6.5720  -6.2022  -2.9487  -1.4608  -0.9938   1.8043

          k = 0.3188 0.5522 0.0000 (  9800 PWs)   bands (ev):

   -21.2274 -21.1819 -21.1576 -21.1531 -21.1161 -14.5880 -12.4841  -7.5745
    -6.5870  -6.1863  -2.9384  -1.4722  -0.9943   1.8000

          k = 0.3116 0.5397 0.0000 (  9784 PWs)   bands (ev):

   -21.2275 -21.1817 -21.1582 -21.1526 -21.1161 -14.5980 -12.4766  -7.5597
    -6.6110  -6.1607  -2.9216  -1.4924  -0.9928   1.7863

          k = 0.3043 0.5271 0.0000 (  9798 PWs)   bands (ev):

   -21.2277 -21.1816 -21.1588 -21.1521 -21.1161 -14.6123 -12.4656  -7.5389
    -6.6419  -6.1273  -2.8987  -1.5211  -0.9886   1.7545

          k = 0.2971 0.5146 0.0000 (  9802 PWs)   bands (ev):

   -21.2278 -21.1814 -21.1594 -21.1516 -21.1161 -14.6309 -12.4511  -7.5120
    -6.6774  -6.0882  -2.8703  -1.5574  -0.9818   1.6982

          k = 0.2899 0.5020 0.0000 (  9804 PWs)   bands (ev):

   -21.2279 -21.1812 -21.1599 -21.1511 -21.1162 -14.6540 -12.4329  -7.4791
    -6.7156  -6.0448  -2.8372  -1.5995  -0.9731   1.6197

          k = 0.2826 0.4895 0.0000 (  9818 PWs)   bands (ev):

   -21.2281 -21.1811 -21.1604 -21.1506 -21.1163 -14.6813 -12.4112  -7.4404
    -6.7549  -5.9986  -2.8001  -1.6454  -0.9634   1.5268

          k = 0.2754 0.4769 0.0000 (  9826 PWs)   bands (ev):

   -21.2282 -21.1809 -21.1609 -21.1502 -21.1164 -14.7127 -12.3861  -7.3960
    -6.7942  -5.9503  -2.7602  -1.6930  -0.9538   1.4266

          k = 0.2681 0.4644 0.0000 (  9814 PWs)   bands (ev):

   -21.2282 -21.1807 -21.1613 -21.1499 -21.1166 -14.7479 -12.3579  -7.3460
    -6.8322  -5.9009  -2.7187  -1.7399  -0.9452   1.3237

          k = 0.2609 0.4518 0.0000 (  9808 PWs)   bands (ev):

   -21.2281 -21.1806 -21.1616 -21.1495 -21.1168 -14.7866 -12.3268  -7.2909
    -6.8682  -5.8508  -2.6775  -1.7837  -0.9383   1.2205

          k = 0.2536 0.4393 0.0000 (  9820 PWs)   bands (ev):

   -21.2281 -21.1806 -21.1619 -21.1493 -21.1171 -14.8285 -12.2933  -7.2310
    -6.9011  -5.8006  -2.6385  -1.8218  -0.9338   1.1186

          k = 0.2464 0.4267 0.0000 (  9812 PWs)   bands (ev):

   -21.2279 -21.1806 -21.1621 -21.1490 -21.1175 -14.8731 -12.2577  -7.1667
    -6.9301  -5.7508  -2.6042  -1.8513  -0.9321   1.0191

          k = 0.2391 0.4142 0.0000 (  9816 PWs)   bands (ev):

   -21.2276 -21.1806 -21.1623 -21.1488 -21.1179 -14.9201 -12.2205  -7.0996
    -6.9532  -5.7019  -2.5775  -1.8693  -0.9335   0.9224

          k = 0.2319 0.4016 0.0000 (  9834 PWs)   bands (ev):

   -21.2273 -21.1807 -21.1624 -21.1486 -21.1184 -14.9691 -12.1821  -7.0367
    -6.9633  -5.6542  -2.5606  -1.8732  -0.9381   0.8290

          k = 0.2246 0.3891 0.0000 (  9826 PWs)   bands (ev):

   -21.2269 -21.1809 -21.1624 -21.1484 -21.1190 -15.0198 -12.1429  -7.0125
    -6.9254  -5.6081  -2.5545  -1.8621  -0.9460   0.7392

          k = 0.2174 0.3765 0.0000 (  9822 PWs)   bands (ev):

   -21.2264 -21.1812 -21.1623 -21.1482 -21.1197 -15.0716 -12.1035  -7.0156
    -6.8511  -5.5640  -2.5587  -1.8368  -0.9569   0.6531

          k = 0.2101 0.3640 0.0000 (  9824 PWs)   bands (ev):

   -21.2259 -21.1815 -21.1622 -21.1480 -21.1204 -15.1243 -12.0643  -7.0178
    -6.7682  -5.5222  -2.5710  -1.7998  -0.9708   0.5709

          k = 0.2029 0.3514 0.0000 (  9832 PWs)   bands (ev):

   -21.2253 -21.1820 -21.1620 -21.1479 -21.1212 -15.1776 -12.0255  -7.0148
    -6.6811  -5.4830  -2.5886  -1.7542  -0.9871   0.4925

          k = 0.1957 0.3389 0.0000 (  9812 PWs)   bands (ev):

   -21.2246 -21.1825 -21.1617 -21.1477 -21.1221 -15.2311 -11.9878  -7.0055
    -6.5910  -5.4467  -2.6090  -1.7033  -1.0054   0.4180

          k = 0.1884 0.3263 0.0000 (  9806 PWs)   bands (ev):

   -21.2238 -21.1830 -21.1613 -21.1475 -21.1230 -15.2846 -11.9513  -6.9893
    -6.4987  -5.4135  -2.6301  -1.6502  -1.0250   0.3472

          k = 0.1812 0.3138 0.0000 (  9798 PWs)   bands (ev):

   -21.2230 -21.1837 -21.1609 -21.1474 -21.1240 -15.3377 -11.9163  -6.9659
    -6.4045  -5.3835  -2.6502  -1.5978  -1.0446   0.2801

          k = 0.1739 0.3012 0.0000 (  9798 PWs)   bands (ev):

   -21.2221 -21.1845 -21.1604 -21.1472 -21.1250 -15.3903 -11.8832  -6.9352
    -6.3091  -5.3569  -2.6682  -1.5490  -1.0631   0.2162

          k = 0.1667 0.2887 0.0000 (  9786 PWs)   bands (ev):

   -21.2212 -21.1853 -21.1598 -21.1470 -21.1261 -15.4421 -11.8522  -6.8969
    -6.2129  -5.3338  -2.6833  -1.5069  -1.0783   0.1556

          k = 0.1594 0.2761 0.0000 (  9790 PWs)   bands (ev):

   -21.2202 -21.1862 -21.1591 -21.1468 -21.1272 -15.4929 -11.8233  -6.8511
    -6.1165  -5.3140  -2.6949  -1.4747  -1.0880   0.0977

          k = 0.1522 0.2636 0.0000 (  9778 PWs)   bands (ev):

   -21.2192 -21.1871 -21.1584 -21.1467 -21.1283 -15.5425 -11.7967  -6.7978
    -6.0206  -5.2974  -2.7029  -1.4551  -1.0905   0.0422

          k = 0.1449 0.2510 0.0000 (  9790 PWs)   bands (ev):

   -21.2182 -21.1882 -21.1577 -21.1465 -21.1294 -15.5907 -11.7725  -6.7371
    -5.9257  -5.2840  -2.7072  -1.4488  -1.0852  -0.0114

          k = 0.1377 0.2385 0.0000 (  9780 PWs)   bands (ev):

   -21.2172 -21.1892 -21.1569 -21.1463 -21.1305 -15.6374 -11.7506  -6.6692
    -5.8325  -5.2734  -2.7080  -1.4544  -1.0741  -0.0634

          k = 0.1304 0.2259 0.0000 (  9772 PWs)   bands (ev):

   -21.2162 -21.1903 -21.1561 -21.1461 -21.1317 -15.6824 -11.7310  -6.5944
    -5.7416  -5.2653  -2.7057  -1.4685  -1.0602  -0.1145

          k = 0.1232 0.2134 0.0000 (  9770 PWs)   bands (ev):

   -21.2152 -21.1915 -21.1552 -21.1460 -21.1328 -15.7257 -11.7137  -6.5130
    -5.6539  -5.2591  -2.7012  -1.4877  -1.0466  -0.1652

          k = 0.1159 0.2008 0.0000 (  9758 PWs)   bands (ev):

   -21.2142 -21.1926 -21.1544 -21.1458 -21.1338 -15.7670 -11.6986  -6.4253
    -5.5703  -5.2542  -2.6954  -1.5089  -1.0355  -0.2160

          k = 0.1087 0.1883 0.0000 (  9756 PWs)   bands (ev):

   -21.2132 -21.1938 -21.1535 -21.1456 -21.1349 -15.8063 -11.6854  -6.3321
    -5.4921  -5.2495  -2.6899  -1.5293  -1.0283  -0.2670

          k = 0.1014 0.1757 0.0000 (  9746 PWs)   bands (ev):

   -21.2123 -21.1949 -21.1525 -21.1455 -21.1359 -15.8435 -11.6742  -6.2338
    -5.4214  -5.2429  -2.6866  -1.5464  -1.0255  -0.3185

          k = 0.0942 0.1632 0.0000 (  9740 PWs)   bands (ev):

   -21.2114 -21.1961 -21.1516 -21.1453 -21.1369 -15.8784 -11.6647  -6.1313
    -5.3625  -5.2299  -2.6876  -1.5579  -1.0273  -0.3701

          k = 0.0870 0.1506 0.0000 (  9728 PWs)   bands (ev):

   -21.2105 -21.1972 -21.1508 -21.1452 -21.1378 -15.9111 -11.6567  -6.0256
    -5.3225  -5.2034  -2.6952  -1.5617  -1.0333  -0.4213

          k = 0.0797 0.1381 0.0000 (  9744 PWs)   bands (ev):

   -21.2097 -21.1983 -21.1499 -21.1450 -21.1386 -15.9414 -11.6501  -5.9180
    -5.3017  -5.1623  -2.7116  -1.5561  -1.0432  -0.4713

          k = 0.0725 0.1255 0.0000 (  9744 PWs)   bands (ev):

   -21.2089 -21.1994 -21.1491 -21.1449 -21.1394 -15.9693 -11.6447  -5.8104
    -5.2902  -5.1156  -2.7384  -1.5401  -1.0562  -0.5193

          k = 0.0652 0.1130 0.0000 (  9734 PWs)   bands (ev):

   -21.2082 -21.2004 -21.1483 -21.1448 -21.1402 -15.9946 -11.6404  -5.7057
    -5.2795  -5.0697  -2.7761  -1.5136  -1.0717  -0.5643

          k = 0.0580 0.1004 0.0000 (  9740 PWs)   bands (ev):

   -21.2076 -21.2013 -21.1476 -21.1447 -21.1408 -16.0175 -11.6370  -5.6089
    -5.2631  -5.0274  -2.8242  -1.4776  -1.0887  -0.6055

          k = 0.0507 0.0879 0.0000 (  9737 PWs)   bands (ev):

   -21.2070 -21.2021 -21.1469 -21.1446 -21.1414 -16.0377 -11.6343  -5.5277
    -5.2336  -4.9898  -2.8812  -1.4343  -1.1065  -0.6423

          k = 0.0435 0.0753 0.0000 (  9741 PWs)   bands (ev):

   -21.2065 -21.2029 -21.1463 -21.1446 -21.1420 -16.0554 -11.6323  -5.4702
    -5.1844  -4.9571  -2.9445  -1.3862  -1.1241  -0.6742

          k = 0.0362 0.0628 0.0000 (  9741 PWs)   bands (ev):

   -21.2060 -21.2035 -21.1458 -21.1445 -21.1424 -16.0703 -11.6308  -5.4365
    -5.1175  -4.9296  -3.0107  -1.3365  -1.1407  -0.7012

          k = 0.0290 0.0502 0.0000 (  9739 PWs)   bands (ev):

   -21.2057 -21.2041 -21.1453 -21.1444 -21.1428 -16.0826 -11.6296  -5.4189
    -5.0436  -4.9073  -3.0757  -1.2886  -1.1554  -0.7233

          k = 0.0217 0.0377 0.0000 (  9747 PWs)   bands (ev):

   -21.2054 -21.2045 -21.1450 -21.1444 -21.1432 -16.0922 -11.6289  -5.4100
    -4.9741  -4.8900  -3.1348  -1.2463  -1.1675  -0.7404

          k = 0.0145 0.0251 0.0000 (  9761 PWs)   bands (ev):

   -21.2052 -21.2048 -21.1447 -21.1444 -21.1434 -16.0990 -11.6284  -5.4055
    -4.9176  -4.8777  -3.1825  -1.2129  -1.1766  -0.7528

          k = 0.0072 0.0126 0.0000 (  9759 PWs)   bands (ev):

   -21.2051 -21.2050 -21.1444 -21.1444 -21.1436 -16.1032 -11.6281  -5.4034
    -4.8807  -4.8703  -3.2138  -1.1915  -1.1822  -0.7602

          k = 0.0000 0.0000 0.0000 (  9797 PWs)   bands (ev):

   -21.2051 -21.2051 -21.1444 -21.1444 -21.1437 -16.1045 -11.6280  -5.4028
    -4.8679  -4.8679  -3.2247  -1.1841  -1.1841  -0.7627

     Writing output data file aiida.save
 
     init_run     :      3.46s CPU      3.75s WALL (       1 calls)
     electrons    :     19.82s CPU     20.13s WALL (       1 calls)

     Called by init_run:
     wfcinit      :      0.00s CPU      0.06s WALL (       1 calls)
     potinit      :      2.64s CPU      2.76s WALL (       1 calls)

     Called by electrons:
     c_bands      :     19.82s CPU     20.12s WALL (       1 calls)
     v_of_rho     :      0.05s CPU      0.05s WALL (       1 calls)
     v_h          :      0.00s CPU      0.00s WALL (       1 calls)
     v_xc         :      0.05s CPU      0.05s WALL (       1 calls)
     newd         :      0.14s CPU      0.15s WALL (       1 calls)

     Called by c_bands:
     init_us_2    :      0.02s CPU      0.01s WALL (      11 calls)
     ccgdiagg     :     17.02s CPU     17.17s WALL (      46 calls)
     wfcrot       :      0.99s CPU      0.98s WALL (      46 calls)

     Called by sum_band:

     Called by *cgdiagg:
     h_psi        :     15.26s CPU     15.42s WALL (    9018 calls)
     s_psi        :      0.76s CPU      0.74s WALL (   17990 calls)
     cdiaghg      :      0.01s CPU      0.01s WALL (      46 calls)

     Called by h_psi:
     h_psi:vloc   :     13.10s CPU     13.19s WALL (    9018 calls)
     h_psi:vnl    :      2.10s CPU      2.18s WALL (    9018 calls)
     add_vuspsi   :      0.53s CPU      0.56s WALL (    9018 calls)

     General routines
     calbec       :      1.94s CPU      2.02s WALL (   17990 calls)
     fft          :      0.14s CPU      0.15s WALL (      13 calls)
     ffts         :      0.00s CPU      0.00s WALL (       1 calls)
     fftw         :     10.92s CPU     10.94s WALL (   19232 calls)
     interpolate  :      0.00s CPU      0.00s WALL (       1 calls)
     davcio       :      0.00s CPU      0.05s WALL (      11 calls)
 
     Parallel routines
     fft_scatter  :      2.28s CPU      2.30s WALL (   19246 calls)

     PAW routines
     PAW_pot      :      0.05s CPU      0.05s WALL (       1 calls)
 
     PWSCF        :    24.04s CPU        32.12s WALL

 
   This run was terminated on:   6: 7:31   6Jan2017            

=------------------------------------------------------------------------------=
   JOB DONE.
=------------------------------------------------------------------------------=
