
     Program PWSCF v.5.1 starts on  6Jan2017 at  5:58: 7 

     This program is part of the open-source Quantum ESPRESSO suite
     for quantum simulation of materials; please cite
         "P. Giannozzi et al., J. Phys.:Condens. Matter 21 395502 (2009);
          URL http://www.quantum-espresso.org", 
     in publications or presentations arising from this work. More details at
     http://www.quantum-espresso.org/quote

     Parallel version (MPI), running on    66 processors
     K-points division:     npool     =      66
     Reading input from aiida.in

     Current dimensions of program PWSCF are:
     Max number of different atomic species (ntypx) = 10
     Max number of k-points (npk) =  40000
     Max angular momentum in pseudopotentials (lmaxx) =  3

     Atomic positions and unit cell read from directory:
     ./out/aiida.save/
 
               file Bi.pbe-dn-kjpaw_psl.0.2.2.UPF: wavefunction(s)  6S renormalized

     Subspace diagonalization in iterative solution of the eigenvalue problem:
     a serial algorithm will be used

 
     G-vector sticks info
     --------------------
     sticks:   dense  smooth     PW     G-vecs:    dense   smooth      PW
     Sum        1273     649    187               185175    65435   10505
 
 ----2D----2D----2D----2D----2D----2D
 THE CODE IS RUNNING WITH 2D CUTOFF
 ----2D----2D----2D----2D----2D----2D


     bravais-lattice index     =            0
     lattice parameter (alat)  =       8.1210  a.u.
     unit-cell volume          =    2338.4741 (a.u.)^3
     number of atoms/cell      =            2
     number of atomic types    =            1
     number of electrons       =        30.00
     number of Kohn-Sham states=           19
     kinetic-energy cutoff     =      35.0000  Ry
     charge density cutoff     =     280.0000  Ry
     Exchange-correlation      =  SLA  PW   PBX  PBC ( 1  4  3  4 0 0)

     celldm(1)=   8.120998  celldm(2)=   0.000000  celldm(3)=   0.000000
     celldm(4)=   0.000000  celldm(5)=   0.000000  celldm(6)=   0.000000

     crystal axes: (cart. coord. in units of alat)
               a(1) = (   1.000000   0.000000   0.000000 )  
               a(2) = (  -0.500000   0.866025   0.000000 )  
               a(3) = (   0.000000   0.000000   5.041663 )  

     reciprocal axes: (cart. coord. in units 2 pi/alat)
               b(1) = (  1.000000  0.577350  0.000000 )  
               b(2) = (  0.000000  1.154701  0.000000 )  
               b(3) = (  0.000000  0.000000  0.198347 )  


     PseudoPot. # 1 for Bi read from file:
     ./pseudo/Bi.pbe-dn-kjpaw_psl.0.2.2.UPF
     MD5 check sum: 5ece76ffcd90f3b2a72fb6c6f74d03dd
     Pseudo is Projector augmented-wave + core cor, Zval = 15.0
     Generated using "atomic" code by A. Dal Corso  v.5.0.99 svn rev. 10869
     Shape of augmentation charge: PSQ
     Using radial grid of 1283 points,  6 beta functions with: 
                l(1) =   0
                l(2) =   0
                l(3) =   1
                l(4) =   1
                l(5) =   2
                l(6) =   2
     Q(r) pseudized with 0 coefficients 


     atomic species   valence    mass     pseudopotential
        Bi            15.00   208.98040     Bi( 1.00)

     12 Sym. Ops., with inversion, found


                                    s                        frac. trans.

      isym =  1     identity                                     

 cryst.   s( 1) = (     1          0          0      )
                  (     0          1          0      )
                  (     0          0          1      )

 cart.    s( 1) = (  1.0000000  0.0000000  0.0000000 )
                  (  0.0000000  1.0000000  0.0000000 )
                  (  0.0000000  0.0000000  1.0000000 )


      isym =  2     180 deg rotation - cart. axis [1,0,0]        

 cryst.   s( 2) = (     1          0          0      )
                  (    -1         -1          0      )
                  (     0          0         -1      )

 cart.    s( 2) = (  1.0000000  0.0000000  0.0000000 )
                  (  0.0000000 -1.0000000  0.0000000 )
                  (  0.0000000  0.0000000 -1.0000000 )


      isym =  3     120 deg rotation - cryst. axis [0,0,1]       

 cryst.   s( 3) = (     0          1          0      )
                  (    -1         -1          0      )
                  (     0          0          1      )

 cart.    s( 3) = ( -0.5000000 -0.8660254  0.0000000 )
                  (  0.8660254 -0.5000000  0.0000000 )
                  (  0.0000000  0.0000000  1.0000000 )


      isym =  4     120 deg rotation - cryst. axis [0,0,-1]      

 cryst.   s( 4) = (    -1         -1          0      )
                  (     1          0          0      )
                  (     0          0          1      )

 cart.    s( 4) = ( -0.5000000  0.8660254  0.0000000 )
                  ( -0.8660254 -0.5000000  0.0000000 )
                  (  0.0000000  0.0000000  1.0000000 )


      isym =  5     180 deg rotation - cryst. axis [0,1,0]       

 cryst.   s( 5) = (    -1         -1          0      )
                  (     0          1          0      )
                  (     0          0         -1      )

 cart.    s( 5) = ( -0.5000000 -0.8660254  0.0000000 )
                  ( -0.8660254  0.5000000  0.0000000 )
                  (  0.0000000  0.0000000 -1.0000000 )


      isym =  6     180 deg rotation - cryst. axis [1,1,0]       

 cryst.   s( 6) = (     0          1          0      )
                  (     1          0          0      )
                  (     0          0         -1      )

 cart.    s( 6) = ( -0.5000000  0.8660254  0.0000000 )
                  (  0.8660254  0.5000000  0.0000000 )
                  (  0.0000000  0.0000000 -1.0000000 )


      isym =  7     inversion                                    

 cryst.   s( 7) = (    -1          0          0      )
                  (     0         -1          0      )
                  (     0          0         -1      )

 cart.    s( 7) = ( -1.0000000  0.0000000  0.0000000 )
                  (  0.0000000 -1.0000000  0.0000000 )
                  (  0.0000000  0.0000000 -1.0000000 )


      isym =  8     inv. 180 deg rotation - cart. axis [1,0,0]   

 cryst.   s( 8) = (    -1          0          0      )
                  (     1          1          0      )
                  (     0          0          1      )

 cart.    s( 8) = ( -1.0000000  0.0000000  0.0000000 )
                  (  0.0000000  1.0000000  0.0000000 )
                  (  0.0000000  0.0000000  1.0000000 )


      isym =  9     inv. 120 deg rotation - cryst. axis [0,0,1]  

 cryst.   s( 9) = (     0         -1          0      )
                  (     1          1          0      )
                  (     0          0         -1      )

 cart.    s( 9) = (  0.5000000  0.8660254  0.0000000 )
                  ( -0.8660254  0.5000000  0.0000000 )
                  (  0.0000000  0.0000000 -1.0000000 )


      isym = 10     inv. 120 deg rotation - cryst. axis [0,0,-1] 

 cryst.   s(10) = (     1          1          0      )
                  (    -1          0          0      )
                  (     0          0         -1      )

 cart.    s(10) = (  0.5000000 -0.8660254  0.0000000 )
                  (  0.8660254  0.5000000  0.0000000 )
                  (  0.0000000  0.0000000 -1.0000000 )


      isym = 11     inv. 180 deg rotation - cryst. axis [0,1,0]  

 cryst.   s(11) = (     1          1          0      )
                  (     0         -1          0      )
                  (     0          0          1      )

 cart.    s(11) = (  0.5000000  0.8660254  0.0000000 )
                  (  0.8660254 -0.5000000  0.0000000 )
                  (  0.0000000  0.0000000  1.0000000 )


      isym = 12     inv. 180 deg rotation - cryst. axis [1,1,0]  

 cryst.   s(12) = (     0         -1          0      )
                  (    -1          0          0      )
                  (     0          0          1      )

 cart.    s(12) = (  0.5000000 -0.8660254  0.0000000 )
                  ( -0.8660254 -0.5000000  0.0000000 )
                  (  0.0000000  0.0000000  1.0000000 )


   Cartesian axes

     site n.     atom                  positions (alat units)
         1           Bi  tau(   1) = (   0.5000000   0.2886751   2.3176421  )
         2           Bi  tau(   2) = (   0.0000000   0.5773503   2.7240205  )

   Crystallographic axes

     site n.     atom                  positions (cryst. coord.)
         1           Bi  tau(   1) = (  0.6666667  0.3333333  0.4596980  )
         2           Bi  tau(   2) = (  0.3333333  0.6666667  0.5403020  )

     number of k points=   132  Marzari-Vanderbilt smearing, width (Ry)=  0.0200
                       cart. coord. in units 2pi/alat
        k(    1) = (   0.0000000   0.0000000   0.0000000), wk =   0.0151515
        k(    2) = (   0.0102041   0.0058913   0.0000000), wk =   0.0151515
        k(    3) = (   0.0204082   0.0117827   0.0000000), wk =   0.0151515
        k(    4) = (   0.0306122   0.0176740   0.0000000), wk =   0.0151515
        k(    5) = (   0.0408163   0.0235653   0.0000000), wk =   0.0151515
        k(    6) = (   0.0510204   0.0294566   0.0000000), wk =   0.0151515
        k(    7) = (   0.0612245   0.0353480   0.0000000), wk =   0.0151515
        k(    8) = (   0.0714286   0.0412393   0.0000000), wk =   0.0151515
        k(    9) = (   0.0816327   0.0471306   0.0000000), wk =   0.0151515
        k(   10) = (   0.0918367   0.0530220   0.0000000), wk =   0.0151515
        k(   11) = (   0.1020408   0.0589133   0.0000000), wk =   0.0151515
        k(   12) = (   0.1122449   0.0648046   0.0000000), wk =   0.0151515
        k(   13) = (   0.1224490   0.0706960   0.0000000), wk =   0.0151515
        k(   14) = (   0.1326531   0.0765873   0.0000000), wk =   0.0151515
        k(   15) = (   0.1428571   0.0824786   0.0000000), wk =   0.0151515
        k(   16) = (   0.1530612   0.0883699   0.0000000), wk =   0.0151515
        k(   17) = (   0.1632653   0.0942613   0.0000000), wk =   0.0151515
        k(   18) = (   0.1734694   0.1001526   0.0000000), wk =   0.0151515
        k(   19) = (   0.1836735   0.1060439   0.0000000), wk =   0.0151515
        k(   20) = (   0.1938776   0.1119353   0.0000000), wk =   0.0151515
        k(   21) = (   0.2040816   0.1178266   0.0000000), wk =   0.0151515
        k(   22) = (   0.2142857   0.1237179   0.0000000), wk =   0.0151515
        k(   23) = (   0.2244898   0.1296092   0.0000000), wk =   0.0151515
        k(   24) = (   0.2346939   0.1355006   0.0000000), wk =   0.0151515
        k(   25) = (   0.2448980   0.1413919   0.0000000), wk =   0.0151515
        k(   26) = (   0.2551020   0.1472832   0.0000000), wk =   0.0151515
        k(   27) = (   0.2653061   0.1531746   0.0000000), wk =   0.0151515
        k(   28) = (   0.2755102   0.1590659   0.0000000), wk =   0.0151515
        k(   29) = (   0.2857143   0.1649572   0.0000000), wk =   0.0151515
        k(   30) = (   0.2959184   0.1708485   0.0000000), wk =   0.0151515
        k(   31) = (   0.3061224   0.1767399   0.0000000), wk =   0.0151515
        k(   32) = (   0.3163265   0.1826312   0.0000000), wk =   0.0151515
        k(   33) = (   0.3265306   0.1885225   0.0000000), wk =   0.0151515
        k(   34) = (   0.3367347   0.1944139   0.0000000), wk =   0.0151515
        k(   35) = (   0.3469388   0.2003052   0.0000000), wk =   0.0151515
        k(   36) = (   0.3571429   0.2061965   0.0000000), wk =   0.0151515
        k(   37) = (   0.3673469   0.2120879   0.0000000), wk =   0.0151515
        k(   38) = (   0.3775510   0.2179792   0.0000000), wk =   0.0151515
        k(   39) = (   0.3877551   0.2238705   0.0000000), wk =   0.0151515
        k(   40) = (   0.3979592   0.2297618   0.0000000), wk =   0.0151515
        k(   41) = (   0.4081633   0.2356532   0.0000000), wk =   0.0151515
        k(   42) = (   0.4183673   0.2415445   0.0000000), wk =   0.0151515
        k(   43) = (   0.4285714   0.2474358   0.0000000), wk =   0.0151515
        k(   44) = (   0.4387755   0.2533272   0.0000000), wk =   0.0151515
        k(   45) = (   0.4489796   0.2592185   0.0000000), wk =   0.0151515
        k(   46) = (   0.4591837   0.2651098   0.0000000), wk =   0.0151515
        k(   47) = (   0.4693878   0.2710011   0.0000000), wk =   0.0151515
        k(   48) = (   0.4795918   0.2768925   0.0000000), wk =   0.0151515
        k(   49) = (   0.4897959   0.2827838   0.0000000), wk =   0.0151515
        k(   50) = (   0.5000000   0.2886751   0.0000000), wk =   0.0151515
        k(   51) = (   0.4953704   0.2966939   0.0000000), wk =   0.0151515
        k(   52) = (   0.4907407   0.3047126   0.0000000), wk =   0.0151515
        k(   53) = (   0.4861111   0.3127314   0.0000000), wk =   0.0151515
        k(   54) = (   0.4814815   0.3207501   0.0000000), wk =   0.0151515
        k(   55) = (   0.4768519   0.3287689   0.0000000), wk =   0.0151515
        k(   56) = (   0.4722222   0.3367877   0.0000000), wk =   0.0151515
        k(   57) = (   0.4675926   0.3448064   0.0000000), wk =   0.0151515
        k(   58) = (   0.4629630   0.3528252   0.0000000), wk =   0.0151515
        k(   59) = (   0.4583333   0.3608439   0.0000000), wk =   0.0151515
        k(   60) = (   0.4537037   0.3688627   0.0000000), wk =   0.0151515
        k(   61) = (   0.4490741   0.3768814   0.0000000), wk =   0.0151515
        k(   62) = (   0.4444444   0.3849002   0.0000000), wk =   0.0151515
        k(   63) = (   0.4398148   0.3929189   0.0000000), wk =   0.0151515
        k(   64) = (   0.4351852   0.4009377   0.0000000), wk =   0.0151515
        k(   65) = (   0.4305556   0.4089564   0.0000000), wk =   0.0151515
        k(   66) = (   0.4259259   0.4169752   0.0000000), wk =   0.0151515
        k(   67) = (   0.4212963   0.4249939   0.0000000), wk =   0.0151515
        k(   68) = (   0.4166667   0.4330127   0.0000000), wk =   0.0151515
        k(   69) = (   0.4120370   0.4410315   0.0000000), wk =   0.0151515
        k(   70) = (   0.4074074   0.4490502   0.0000000), wk =   0.0151515
        k(   71) = (   0.4027778   0.4570690   0.0000000), wk =   0.0151515
        k(   72) = (   0.3981481   0.4650877   0.0000000), wk =   0.0151515
        k(   73) = (   0.3935185   0.4731065   0.0000000), wk =   0.0151515
        k(   74) = (   0.3888889   0.4811252   0.0000000), wk =   0.0151515
        k(   75) = (   0.3842593   0.4891440   0.0000000), wk =   0.0151515
        k(   76) = (   0.3796296   0.4971627   0.0000000), wk =   0.0151515
        k(   77) = (   0.3750000   0.5051815   0.0000000), wk =   0.0151515
        k(   78) = (   0.3703704   0.5132002   0.0000000), wk =   0.0151515
        k(   79) = (   0.3657407   0.5212190   0.0000000), wk =   0.0151515
        k(   80) = (   0.3611111   0.5292377   0.0000000), wk =   0.0151515
        k(   81) = (   0.3564815   0.5372565   0.0000000), wk =   0.0151515
        k(   82) = (   0.3518519   0.5452753   0.0000000), wk =   0.0151515
        k(   83) = (   0.3472222   0.5532940   0.0000000), wk =   0.0151515
        k(   84) = (   0.3425926   0.5613128   0.0000000), wk =   0.0151515
        k(   85) = (   0.3379630   0.5693315   0.0000000), wk =   0.0151515
        k(   86) = (   0.3333333   0.5773503   0.0000000), wk =   0.0151515
        k(   87) = (   0.3260870   0.5647992   0.0000000), wk =   0.0151515
        k(   88) = (   0.3188406   0.5522481   0.0000000), wk =   0.0151515
        k(   89) = (   0.3115942   0.5396970   0.0000000), wk =   0.0151515
        k(   90) = (   0.3043478   0.5271459   0.0000000), wk =   0.0151515
        k(   91) = (   0.2971014   0.5145948   0.0000000), wk =   0.0151515
        k(   92) = (   0.2898551   0.5020437   0.0000000), wk =   0.0151515
        k(   93) = (   0.2826087   0.4894926   0.0000000), wk =   0.0151515
        k(   94) = (   0.2753623   0.4769415   0.0000000), wk =   0.0151515
        k(   95) = (   0.2681159   0.4643904   0.0000000), wk =   0.0151515
        k(   96) = (   0.2608696   0.4518393   0.0000000), wk =   0.0151515
        k(   97) = (   0.2536232   0.4392882   0.0000000), wk =   0.0151515
        k(   98) = (   0.2463768   0.4267372   0.0000000), wk =   0.0151515
        k(   99) = (   0.2391304   0.4141861   0.0000000), wk =   0.0151515
        k(  100) = (   0.2318841   0.4016350   0.0000000), wk =   0.0151515
        k(  101) = (   0.2246377   0.3890839   0.0000000), wk =   0.0151515
        k(  102) = (   0.2173913   0.3765328   0.0000000), wk =   0.0151515
        k(  103) = (   0.2101449   0.3639817   0.0000000), wk =   0.0151515
        k(  104) = (   0.2028986   0.3514306   0.0000000), wk =   0.0151515
        k(  105) = (   0.1956522   0.3388795   0.0000000), wk =   0.0151515
        k(  106) = (   0.1884058   0.3263284   0.0000000), wk =   0.0151515
        k(  107) = (   0.1811594   0.3137773   0.0000000), wk =   0.0151515
        k(  108) = (   0.1739130   0.3012262   0.0000000), wk =   0.0151515
        k(  109) = (   0.1666667   0.2886751   0.0000000), wk =   0.0151515
        k(  110) = (   0.1594203   0.2761240   0.0000000), wk =   0.0151515
        k(  111) = (   0.1521739   0.2635729   0.0000000), wk =   0.0151515
        k(  112) = (   0.1449275   0.2510219   0.0000000), wk =   0.0151515
        k(  113) = (   0.1376812   0.2384708   0.0000000), wk =   0.0151515
        k(  114) = (   0.1304348   0.2259197   0.0000000), wk =   0.0151515
        k(  115) = (   0.1231884   0.2133686   0.0000000), wk =   0.0151515
        k(  116) = (   0.1159420   0.2008175   0.0000000), wk =   0.0151515
        k(  117) = (   0.1086957   0.1882664   0.0000000), wk =   0.0151515
        k(  118) = (   0.1014493   0.1757153   0.0000000), wk =   0.0151515
        k(  119) = (   0.0942029   0.1631642   0.0000000), wk =   0.0151515
        k(  120) = (   0.0869565   0.1506131   0.0000000), wk =   0.0151515
        k(  121) = (   0.0797101   0.1380620   0.0000000), wk =   0.0151515
        k(  122) = (   0.0724638   0.1255109   0.0000000), wk =   0.0151515
        k(  123) = (   0.0652174   0.1129598   0.0000000), wk =   0.0151515
        k(  124) = (   0.0579710   0.1004087   0.0000000), wk =   0.0151515
        k(  125) = (   0.0507246   0.0878576   0.0000000), wk =   0.0151515
        k(  126) = (   0.0434783   0.0753066   0.0000000), wk =   0.0151515
        k(  127) = (   0.0362319   0.0627555   0.0000000), wk =   0.0151515
        k(  128) = (   0.0289855   0.0502044   0.0000000), wk =   0.0151515
        k(  129) = (   0.0217391   0.0376533   0.0000000), wk =   0.0151515
        k(  130) = (   0.0144928   0.0251022   0.0000000), wk =   0.0151515
        k(  131) = (   0.0072464   0.0125511   0.0000000), wk =   0.0151515
        k(  132) = (   0.0000000   0.0000000   0.0000000), wk =   0.0151515

                       cryst. coord.
        k(    1) = (   0.0000000   0.0000000   0.0000000), wk =   0.0151515
        k(    2) = (   0.0102041  -0.0000000   0.0000000), wk =   0.0151515
        k(    3) = (   0.0204082  -0.0000000   0.0000000), wk =   0.0151515
        k(    4) = (   0.0306122  -0.0000000   0.0000000), wk =   0.0151515
        k(    5) = (   0.0408163  -0.0000000   0.0000000), wk =   0.0151515
        k(    6) = (   0.0510204  -0.0000000   0.0000000), wk =   0.0151515
        k(    7) = (   0.0612245  -0.0000000   0.0000000), wk =   0.0151515
        k(    8) = (   0.0714286  -0.0000000   0.0000000), wk =   0.0151515
        k(    9) = (   0.0816327  -0.0000000   0.0000000), wk =   0.0151515
        k(   10) = (   0.0918367  -0.0000000   0.0000000), wk =   0.0151515
        k(   11) = (   0.1020408  -0.0000000   0.0000000), wk =   0.0151515
        k(   12) = (   0.1122449  -0.0000000   0.0000000), wk =   0.0151515
        k(   13) = (   0.1224490  -0.0000000   0.0000000), wk =   0.0151515
        k(   14) = (   0.1326531   0.0000000   0.0000000), wk =   0.0151515
        k(   15) = (   0.1428571  -0.0000000   0.0000000), wk =   0.0151515
        k(   16) = (   0.1530612   0.0000000   0.0000000), wk =   0.0151515
        k(   17) = (   0.1632653   0.0000000   0.0000000), wk =   0.0151515
        k(   18) = (   0.1734694  -0.0000000   0.0000000), wk =   0.0151515
        k(   19) = (   0.1836735  -0.0000000   0.0000000), wk =   0.0151515
        k(   20) = (   0.1938776   0.0000000   0.0000000), wk =   0.0151515
        k(   21) = (   0.2040816  -0.0000000   0.0000000), wk =   0.0151515
        k(   22) = (   0.2142857  -0.0000000   0.0000000), wk =   0.0151515
        k(   23) = (   0.2244898  -0.0000000   0.0000000), wk =   0.0151515
        k(   24) = (   0.2346939  -0.0000000   0.0000000), wk =   0.0151515
        k(   25) = (   0.2448980  -0.0000000   0.0000000), wk =   0.0151515
        k(   26) = (   0.2551020  -0.0000000   0.0000000), wk =   0.0151515
        k(   27) = (   0.2653061   0.0000000   0.0000000), wk =   0.0151515
        k(   28) = (   0.2755102   0.0000000   0.0000000), wk =   0.0151515
        k(   29) = (   0.2857143  -0.0000000   0.0000000), wk =   0.0151515
        k(   30) = (   0.2959184   0.0000000   0.0000000), wk =   0.0151515
        k(   31) = (   0.3061224   0.0000000   0.0000000), wk =   0.0151515
        k(   32) = (   0.3163265  -0.0000000   0.0000000), wk =   0.0151515
        k(   33) = (   0.3265306   0.0000000   0.0000000), wk =   0.0151515
        k(   34) = (   0.3367347   0.0000000   0.0000000), wk =   0.0151515
        k(   35) = (   0.3469388  -0.0000000   0.0000000), wk =   0.0151515
        k(   36) = (   0.3571429   0.0000000   0.0000000), wk =   0.0151515
        k(   37) = (   0.3673469  -0.0000000   0.0000000), wk =   0.0151515
        k(   38) = (   0.3775510  -0.0000000   0.0000000), wk =   0.0151515
        k(   39) = (   0.3877551   0.0000000   0.0000000), wk =   0.0151515
        k(   40) = (   0.3979592  -0.0000000   0.0000000), wk =   0.0151515
        k(   41) = (   0.4081633  -0.0000000   0.0000000), wk =   0.0151515
        k(   42) = (   0.4183673  -0.0000000   0.0000000), wk =   0.0151515
        k(   43) = (   0.4285714  -0.0000000   0.0000000), wk =   0.0151515
        k(   44) = (   0.4387755   0.0000000   0.0000000), wk =   0.0151515
        k(   45) = (   0.4489796  -0.0000000   0.0000000), wk =   0.0151515
        k(   46) = (   0.4591837  -0.0000000   0.0000000), wk =   0.0151515
        k(   47) = (   0.4693878  -0.0000000   0.0000000), wk =   0.0151515
        k(   48) = (   0.4795918  -0.0000000   0.0000000), wk =   0.0151515
        k(   49) = (   0.4897959  -0.0000000   0.0000000), wk =   0.0151515
        k(   50) = (   0.5000000  -0.0000000   0.0000000), wk =   0.0151515
        k(   51) = (   0.4953704   0.0092593   0.0000000), wk =   0.0151515
        k(   52) = (   0.4907407   0.0185185   0.0000000), wk =   0.0151515
        k(   53) = (   0.4861111   0.0277778   0.0000000), wk =   0.0151515
        k(   54) = (   0.4814815   0.0370370   0.0000000), wk =   0.0151515
        k(   55) = (   0.4768519   0.0462963   0.0000000), wk =   0.0151515
        k(   56) = (   0.4722222   0.0555556   0.0000000), wk =   0.0151515
        k(   57) = (   0.4675926   0.0648148   0.0000000), wk =   0.0151515
        k(   58) = (   0.4629630   0.0740741   0.0000000), wk =   0.0151515
        k(   59) = (   0.4583333   0.0833333   0.0000000), wk =   0.0151515
        k(   60) = (   0.4537037   0.0925926   0.0000000), wk =   0.0151515
        k(   61) = (   0.4490741   0.1018519   0.0000000), wk =   0.0151515
        k(   62) = (   0.4444444   0.1111111   0.0000000), wk =   0.0151515
        k(   63) = (   0.4398148   0.1203704   0.0000000), wk =   0.0151515
        k(   64) = (   0.4351852   0.1296296   0.0000000), wk =   0.0151515
        k(   65) = (   0.4305556   0.1388889   0.0000000), wk =   0.0151515
        k(   66) = (   0.4259259   0.1481481   0.0000000), wk =   0.0151515
        k(   67) = (   0.4212963   0.1574074   0.0000000), wk =   0.0151515
        k(   68) = (   0.4166667   0.1666667   0.0000000), wk =   0.0151515
        k(   69) = (   0.4120370   0.1759259   0.0000000), wk =   0.0151515
        k(   70) = (   0.4074074   0.1851852   0.0000000), wk =   0.0151515
        k(   71) = (   0.4027778   0.1944444   0.0000000), wk =   0.0151515
        k(   72) = (   0.3981481   0.2037037   0.0000000), wk =   0.0151515
        k(   73) = (   0.3935185   0.2129630   0.0000000), wk =   0.0151515
        k(   74) = (   0.3888889   0.2222222   0.0000000), wk =   0.0151515
        k(   75) = (   0.3842593   0.2314815   0.0000000), wk =   0.0151515
        k(   76) = (   0.3796296   0.2407407   0.0000000), wk =   0.0151515
        k(   77) = (   0.3750000   0.2500000   0.0000000), wk =   0.0151515
        k(   78) = (   0.3703704   0.2592593   0.0000000), wk =   0.0151515
        k(   79) = (   0.3657407   0.2685185   0.0000000), wk =   0.0151515
        k(   80) = (   0.3611111   0.2777778   0.0000000), wk =   0.0151515
        k(   81) = (   0.3564815   0.2870370   0.0000000), wk =   0.0151515
        k(   82) = (   0.3518519   0.2962963   0.0000000), wk =   0.0151515
        k(   83) = (   0.3472222   0.3055556   0.0000000), wk =   0.0151515
        k(   84) = (   0.3425926   0.3148148   0.0000000), wk =   0.0151515
        k(   85) = (   0.3379630   0.3240741   0.0000000), wk =   0.0151515
        k(   86) = (   0.3333333   0.3333333   0.0000000), wk =   0.0151515
        k(   87) = (   0.3260870   0.3260870   0.0000000), wk =   0.0151515
        k(   88) = (   0.3188406   0.3188406   0.0000000), wk =   0.0151515
        k(   89) = (   0.3115942   0.3115942   0.0000000), wk =   0.0151515
        k(   90) = (   0.3043478   0.3043478   0.0000000), wk =   0.0151515
        k(   91) = (   0.2971014   0.2971014   0.0000000), wk =   0.0151515
        k(   92) = (   0.2898551   0.2898551   0.0000000), wk =   0.0151515
        k(   93) = (   0.2826087   0.2826087   0.0000000), wk =   0.0151515
        k(   94) = (   0.2753623   0.2753623   0.0000000), wk =   0.0151515
        k(   95) = (   0.2681159   0.2681159   0.0000000), wk =   0.0151515
        k(   96) = (   0.2608696   0.2608696   0.0000000), wk =   0.0151515
        k(   97) = (   0.2536232   0.2536232   0.0000000), wk =   0.0151515
        k(   98) = (   0.2463768   0.2463768   0.0000000), wk =   0.0151515
        k(   99) = (   0.2391304   0.2391304   0.0000000), wk =   0.0151515
        k(  100) = (   0.2318841   0.2318841   0.0000000), wk =   0.0151515
        k(  101) = (   0.2246377   0.2246377   0.0000000), wk =   0.0151515
        k(  102) = (   0.2173913   0.2173913   0.0000000), wk =   0.0151515
        k(  103) = (   0.2101449   0.2101449   0.0000000), wk =   0.0151515
        k(  104) = (   0.2028986   0.2028986   0.0000000), wk =   0.0151515
        k(  105) = (   0.1956522   0.1956522   0.0000000), wk =   0.0151515
        k(  106) = (   0.1884058   0.1884058   0.0000000), wk =   0.0151515
        k(  107) = (   0.1811594   0.1811594   0.0000000), wk =   0.0151515
        k(  108) = (   0.1739130   0.1739130   0.0000000), wk =   0.0151515
        k(  109) = (   0.1666667   0.1666667   0.0000000), wk =   0.0151515
        k(  110) = (   0.1594203   0.1594203   0.0000000), wk =   0.0151515
        k(  111) = (   0.1521739   0.1521739   0.0000000), wk =   0.0151515
        k(  112) = (   0.1449275   0.1449275   0.0000000), wk =   0.0151515
        k(  113) = (   0.1376812   0.1376812   0.0000000), wk =   0.0151515
        k(  114) = (   0.1304348   0.1304348   0.0000000), wk =   0.0151515
        k(  115) = (   0.1231884   0.1231884   0.0000000), wk =   0.0151515
        k(  116) = (   0.1159420   0.1159420   0.0000000), wk =   0.0151515
        k(  117) = (   0.1086957   0.1086957   0.0000000), wk =   0.0151515
        k(  118) = (   0.1014493   0.1014493   0.0000000), wk =   0.0151515
        k(  119) = (   0.0942029   0.0942029   0.0000000), wk =   0.0151515
        k(  120) = (   0.0869565   0.0869565   0.0000000), wk =   0.0151515
        k(  121) = (   0.0797101   0.0797101   0.0000000), wk =   0.0151515
        k(  122) = (   0.0724638   0.0724638   0.0000000), wk =   0.0151515
        k(  123) = (   0.0652174   0.0652174   0.0000000), wk =   0.0151515
        k(  124) = (   0.0579710   0.0579710   0.0000000), wk =   0.0151515
        k(  125) = (   0.0507246   0.0507246   0.0000000), wk =   0.0151515
        k(  126) = (   0.0434783   0.0434783   0.0000000), wk =   0.0151515
        k(  127) = (   0.0362319   0.0362319   0.0000000), wk =   0.0151515
        k(  128) = (   0.0289855   0.0289855   0.0000000), wk =   0.0151515
        k(  129) = (   0.0217391   0.0217391   0.0000000), wk =   0.0151515
        k(  130) = (   0.0144928   0.0144928   0.0000000), wk =   0.0151515
        k(  131) = (   0.0072464   0.0072464   0.0000000), wk =   0.0151515
        k(  132) = (   0.0000000   0.0000000   0.0000000), wk =   0.0151515

     Dense  grid:   185175 G-vectors     FFT dimensions: (  45,  45, 225)

     Smooth grid:    65435 G-vectors     FFT dimensions: (  32,  32, 160)

     Largest allocated arrays     est. size (Mb)     dimensions
        Kohn-Sham Wavefunctions         2.39 Mb     (    8243,   19)
        NL pseudopotentials             4.53 Mb     (    8243,   36)
        Each V/rho on FFT grid          6.95 Mb     (  455625)
        Each G-vector array             1.41 Mb     (  185175)
        G-vector shells                 0.06 Mb     (    8272)
     Largest temporary arrays     est. size (Mb)     dimensions
        Each subspace H/S matrix        0.01 Mb     (      19,   19)
        Each <psi_i|beta_j> matrix      0.01 Mb     (      36,   19)

     The potential is recalculated from file :
     ./out/aiida.save/charge-density.xml


     negative rho (up, down):  5.556E-05 0.000E+00
     Starting wfc are   18 randomized atomic wfcs +    1 random wfc
     Checking if some PAW data can be deallocated... 

     Band Structure Calculation
     CG style diagonalization

     Computing kpt #:     1
     c_bands:  1 eigenvalues not converged
     total cpu time spent up to now is       18.0 secs

     Computing kpt #:     2
     c_bands:  1 eigenvalues not converged
     total cpu time spent up to now is       30.1 secs

     ethr =  6.67E-12,  avg # of iterations = 52.7

     total cpu time spent up to now is       30.1 secs

     End of band structure calculation

          k = 0.0000 0.0000 0.0000 (  8243 PWs)   bands (ev):

   -26.7300 -26.7300 -26.5992 -26.5992 -26.5788 -26.4217 -26.4217 -26.4024
   -26.3057 -26.3057 -16.5587 -12.6257  -5.0105  -4.0543  -4.0543  -3.4872
    -1.5139  -1.5139  -0.3619

          k = 0.0102 0.0059 0.0000 (  8231 PWs)   bands (ev):

   -26.7300 -26.7299 -26.5992 -26.5992 -26.5787 -26.4217 -26.4217 -26.4023
   -26.3057 -26.3057 -16.5578 -12.6260  -5.0101  -4.0830  -4.0569  -3.4599
    -1.5207  -1.5117  -0.3591

          k = 0.0204 0.0118 0.0000 (  8243 PWs)   bands (ev):

   -26.7300 -26.7297 -26.5992 -26.5990 -26.5786 -26.4218 -26.4218 -26.4024
   -26.3061 -26.3057 -16.5549 -12.6268  -5.0089  -4.1566  -4.0646  -3.3905
    -1.5404  -1.5051  -0.3557

          k = 0.0306 0.0177 0.0000 (  8229 PWs)   bands (ev):

   -26.7299 -26.7292 -26.5991 -26.5987 -26.5784 -26.4220 -26.4218 -26.4025
   -26.3066 -26.3057 -16.5501 -12.6282  -5.0071  -4.2551  -4.0772  -3.2990
    -1.5716  -1.4943  -0.3487

          k = 0.0408 0.0236 0.0000 (  8233 PWs)   bands (ev):

   -26.7297 -26.7286 -26.5991 -26.5982 -26.5782 -26.4223 -26.4218 -26.4026
   -26.3075 -26.3057 -16.5434 -12.6302  -5.0045  -4.3664  -4.0946  -3.1985
    -1.6122  -1.4796  -0.3340

          k = 0.0510 0.0295 0.0000 (  8235 PWs)   bands (ev):

   -26.7296 -26.7279 -26.5990 -26.5977 -26.5779 -26.4226 -26.4219 -26.4028
   -26.3085 -26.3058 -16.5349 -12.6328  -5.0013  -4.4842  -4.1165  -3.0960
    -1.6593  -1.4612  -0.3255

          k = 0.0612 0.0353 0.0000 (  8233 PWs)   bands (ev):

   -26.7295 -26.7269 -26.5990 -26.5971 -26.5775 -26.4230 -26.4220 -26.4030
   -26.3098 -26.3059 -16.5244 -12.6360  -4.9975  -4.6052  -4.1426  -2.9958
    -1.7097  -1.4396  -0.3097

          k = 0.0714 0.0412 0.0000 (  8233 PWs)   bands (ev):

   -26.7293 -26.7259 -26.5989 -26.5964 -26.5770 -26.4235 -26.4221 -26.4032
   -26.3112 -26.3059 -16.5120 -12.6399  -4.9934  -4.7276  -4.1724  -2.9017
    -1.7600  -1.4152  -0.2906

          k = 0.0816 0.0471 0.0000 (  8233 PWs)   bands (ev):

   -26.7290 -26.7246 -26.5989 -26.5955 -26.5764 -26.4240 -26.4223 -26.4034
   -26.3129 -26.3060 -16.4978 -12.6445  -4.9893  -4.8502  -4.2057  -2.8176
    -1.8057  -1.3883  -0.2705

          k = 0.0918 0.0530 0.0000 (  8225 PWs)   bands (ev):

   -26.7288 -26.7232 -26.5989 -26.5945 -26.5757 -26.4246 -26.4225 -26.4037
   -26.3148 -26.3061 -16.4816 -12.6499  -4.9919  -4.9653  -4.2420  -2.7480
    -1.8418  -1.3597  -0.2473

          k = 0.1020 0.0589 0.0000 (  8215 PWs)   bands (ev):

   -26.7285 -26.7215 -26.5989 -26.5935 -26.5749 -26.4252 -26.4226 -26.4040
   -26.3169 -26.3062 -16.4637 -12.6562  -5.0972  -4.9768  -4.2808  -2.6980
    -1.8629  -1.3296  -0.2222

          k = 0.1122 0.0648 0.0000 (  8211 PWs)   bands (ev):

   -26.7282 -26.7198 -26.5989 -26.5923 -26.5741 -26.4260 -26.4229 -26.4043
   -26.3193 -26.3063 -16.4439 -12.6633  -5.2171  -4.9726  -4.3220  -2.6716
    -1.8646  -1.2987  -0.1954

          k = 0.1224 0.0707 0.0000 (  8215 PWs)   bands (ev):

   -26.7279 -26.7179 -26.5990 -26.5910 -26.5731 -26.4268 -26.4232 -26.4046
   -26.3218 -26.3064 -16.4223 -12.6714  -5.3357  -4.9682  -4.3650  -2.6696
    -1.8454  -1.2673  -0.1674

          k = 0.1327 0.0766 0.0000 (  8223 PWs)   bands (ev):

   -26.7276 -26.7158 -26.5991 -26.5897 -26.5720 -26.4277 -26.4235 -26.4049
   -26.3246 -26.3065 -16.3988 -12.6805  -5.4524  -4.9642  -4.4095  -2.6891
    -1.8084  -1.2359  -0.1386

          k = 0.1429 0.0825 0.0000 (  8209 PWs)   bands (ev):

   -26.7272 -26.7135 -26.5992 -26.5882 -26.5708 -26.4286 -26.4239 -26.4052
   -26.3275 -26.3067 -16.3736 -12.6907  -5.5669  -4.9610  -4.4552  -2.7245
    -1.7588  -1.2049  -0.1092

          k = 0.1531 0.0884 0.0000 (  8207 PWs)   bands (ev):

   -26.7268 -26.7111 -26.5993 -26.5867 -26.5696 -26.4296 -26.4244 -26.4055
   -26.3307 -26.3068 -16.3467 -12.7021  -5.6788  -4.9588  -4.5018  -2.7701
    -1.7021  -1.1745  -0.0798

          k = 0.1633 0.0943 0.0000 (  8197 PWs)   bands (ev):

   -26.7264 -26.7085 -26.5994 -26.5850 -26.5682 -26.4307 -26.4249 -26.4058
   -26.3340 -26.3070 -16.3180 -12.7148  -5.7878  -4.9581  -4.5491  -2.8214
    -1.6425  -1.1452  -0.0504

          k = 0.1735 0.1002 0.0000 (  8193 PWs)   bands (ev):

   -26.7260 -26.7058 -26.5996 -26.5833 -26.5667 -26.4318 -26.4255 -26.4061
   -26.3375 -26.3071 -16.2876 -12.7289  -5.8939  -4.9591  -4.5967  -2.8751
    -1.5834  -1.1172  -0.0214

          k = 0.1837 0.1060 0.0000 (  8187 PWs)   bands (ev):

   -26.7256 -26.7030 -26.5998 -26.5814 -26.5651 -26.4331 -26.4262 -26.4064
   -26.3411 -26.3073 -16.2555 -12.7443  -5.9967  -4.9623  -4.6444  -2.9288
    -1.5270  -1.0907   0.0071

          k = 0.1939 0.1119 0.0000 (  8183 PWs)   bands (ev):

   -26.7251 -26.7000 -26.6000 -26.5795 -26.5634 -26.4343 -26.4270 -26.4067
   -26.3449 -26.3074 -16.2218 -12.7613  -6.0960  -4.9680  -4.6921  -2.9807
    -1.4748  -1.0659   0.0353

          k = 0.2041 0.1178 0.0000 (  8175 PWs)   bands (ev):

   -26.7247 -26.6969 -26.6002 -26.5775 -26.5616 -26.4357 -26.4278 -26.4070
   -26.3488 -26.3076 -16.1865 -12.7798  -6.1918  -4.9765  -4.7395  -3.0295
    -1.4283  -1.0429   0.0631

          k = 0.2143 0.1237 0.0000 (  8175 PWs)   bands (ev):

   -26.7242 -26.6936 -26.6005 -26.5754 -26.5598 -26.4371 -26.4288 -26.4073
   -26.3529 -26.3078 -16.1496 -12.8000  -6.2837  -4.9883  -4.7864  -3.0742
    -1.3882  -1.0218   0.0909

          k = 0.2245 0.1296 0.0000 (  8185 PWs)   bands (ev):

   -26.7237 -26.6903 -26.6008 -26.5733 -26.5578 -26.4386 -26.4299 -26.4076
   -26.3572 -26.3080 -16.1112 -12.8219  -6.3717  -5.0035  -4.8327  -3.1139
    -1.3552  -1.0027   0.1190

          k = 0.2347 0.1355 0.0000 (  8183 PWs)   bands (ev):

   -26.7233 -26.6868 -26.6011 -26.5711 -26.5558 -26.4401 -26.4310 -26.4079
   -26.3615 -26.3082 -16.0714 -12.8456  -6.4557  -5.0223  -4.8783  -3.1481
    -1.3299  -0.9857   0.1480

          k = 0.2449 0.1414 0.0000 (  8177 PWs)   bands (ev):

   -26.7228 -26.6831 -26.6014 -26.5688 -26.5537 -26.4417 -26.4322 -26.4082
   -26.3659 -26.3084 -16.0302 -12.8710  -6.5354  -5.0450  -4.9230  -3.1763
    -1.3124  -0.9705   0.1784

          k = 0.2551 0.1473 0.0000 (  8177 PWs)   bands (ev):

   -26.7223 -26.6794 -26.6017 -26.5664 -26.5515 -26.4434 -26.4335 -26.4085
   -26.3704 -26.3086 -15.9876 -12.8983  -6.6109  -5.0714  -4.9667  -3.1984
    -1.3028  -0.9573   0.2109

          k = 0.2653 0.1532 0.0000 (  8177 PWs)   bands (ev):

   -26.7218 -26.6756 -26.6019 -26.5640 -26.5492 -26.4451 -26.4349 -26.4089
   -26.3749 -26.3088 -15.9437 -12.9274  -6.6820  -5.1016  -5.0092  -3.2143
    -1.3011  -0.9460   0.2460

          k = 0.2755 0.1591 0.0000 (  8191 PWs)   bands (ev):

   -26.7214 -26.6717 -26.6023 -26.5616 -26.5470 -26.4469 -26.4365 -26.4094
   -26.3795 -26.3090 -15.8987 -12.9584  -6.7487  -5.1352  -5.0506  -3.2241
    -1.3068  -0.9364   0.2842

          k = 0.2857 0.1650 0.0000 (  8179 PWs)   bands (ev):

   -26.7209 -26.6677 -26.6025 -26.5590 -26.5445 -26.4488 -26.4380 -26.4100
   -26.3839 -26.3091 -15.8525 -12.9912  -6.8109  -5.1720  -5.0906  -3.2278
    -1.3193  -0.9285   0.3257

          k = 0.2959 0.1708 0.0000 (  8173 PWs)   bands (ev):

   -26.7204 -26.6635 -26.6027 -26.5565 -26.5421 -26.4507 -26.4396 -26.4109
   -26.3881 -26.3093 -15.8053 -13.0257  -6.8687  -5.2117  -5.1292  -3.2258
    -1.3382  -0.9221   0.3708

          k = 0.3061 0.1767 0.0000 (  8169 PWs)   bands (ev):

   -26.7199 -26.6594 -26.6029 -26.5539 -26.5396 -26.4526 -26.4414 -26.4122
   -26.3920 -26.3095 -15.7572 -13.0619  -6.9220  -5.2537  -5.1664  -3.2185
    -1.3626  -0.9171   0.4194

          k = 0.3163 0.1826 0.0000 (  8169 PWs)   bands (ev):

   -26.7195 -26.6552 -26.6031 -26.5512 -26.5371 -26.4547 -26.4432 -26.4140
   -26.3954 -26.3097 -15.7084 -13.0998  -6.9710  -5.2975  -5.2020  -3.2062
    -1.3919  -0.9134   0.4713

          k = 0.3265 0.1885 0.0000 (  8169 PWs)   bands (ev):

   -26.7190 -26.6510 -26.6032 -26.5485 -26.5346 -26.4567 -26.4451 -26.4165
   -26.3980 -26.3099 -15.6588 -13.1391  -7.0156  -5.3428  -5.2360  -3.1895
    -1.4252  -0.9108   0.5261

          k = 0.3367 0.1944 0.0000 (  8165 PWs)   bands (ev):

   -26.7186 -26.6468 -26.6033 -26.5458 -26.5319 -26.4589 -26.4471 -26.4198
   -26.4000 -26.3100 -15.6088 -13.1798  -7.0560  -5.3889  -5.2683  -3.1687
    -1.4618  -0.9092   0.5829

          k = 0.3469 0.2003 0.0000 (  8157 PWs)   bands (ev):

   -26.7182 -26.6426 -26.6033 -26.5430 -26.5293 -26.4611 -26.4491 -26.4237
   -26.4013 -26.3102 -15.5585 -13.2216  -7.0923  -5.4353  -5.2989  -3.1444
    -1.5012  -0.9085   0.6402

          k = 0.3571 0.2062 0.0000 (  8167 PWs)   bands (ev):

   -26.7179 -26.6386 -26.6031 -26.5402 -26.5266 -26.4634 -26.4512 -26.4280
   -26.4022 -26.3103 -15.5080 -13.2644  -7.1246  -5.4816  -5.3277  -3.1169
    -1.5426  -0.9084   0.6935

          k = 0.3673 0.2121 0.0000 (  8173 PWs)   bands (ev):

   -26.7176 -26.6346 -26.6029 -26.5374 -26.5239 -26.4657 -26.4534 -26.4325
   -26.4028 -26.3105 -15.4577 -13.3078  -7.1532  -5.5273  -5.3548  -3.0868
    -1.5855  -0.9090   0.7342

          k = 0.3776 0.2180 0.0000 (  8163 PWs)   bands (ev):

   -26.7172 -26.6309 -26.6024 -26.5345 -26.5212 -26.4680 -26.4556 -26.4371
   -26.4032 -26.3106 -15.4078 -13.3516  -7.1781  -5.5719  -5.3800  -3.0545
    -1.6293  -0.9100   0.7550

          k = 0.3878 0.2239 0.0000 (  8164 PWs)   bands (ev):

   -26.7169 -26.6273 -26.6017 -26.5317 -26.5185 -26.4704 -26.4579 -26.4417
   -26.4035 -26.3108 -15.3586 -13.3954  -7.1997  -5.6149  -5.4032  -3.0205
    -1.6736  -0.9113   0.7608

          k = 0.3980 0.2298 0.0000 (  8156 PWs)   bands (ev):

   -26.7166 -26.6242 -26.6007 -26.5289 -26.5158 -26.4728 -26.4602 -26.4463
   -26.4037 -26.3109 -15.3106 -13.4387  -7.2181  -5.6560  -5.4246  -2.9854
    -1.7180  -0.9129   0.7580

          k = 0.4082 0.2357 0.0000 (  8162 PWs)   bands (ev):

   -26.7163 -26.6215 -26.5994 -26.5260 -26.5131 -26.4753 -26.4627 -26.4507
   -26.4039 -26.3110 -15.2640 -13.4812  -7.2337  -5.6946  -5.4440  -2.9495
    -1.7619  -0.9147   0.7502

          k = 0.4184 0.2415 0.0000 (  8170 PWs)   bands (ev):

   -26.7161 -26.6194 -26.5977 -26.5232 -26.5105 -26.4778 -26.4652 -26.4549
   -26.4040 -26.3111 -15.2195 -13.5222  -7.2466  -5.7305  -5.4614  -2.9135
    -1.8047  -0.9165   0.7396

          k = 0.4286 0.2474 0.0000 (  8180 PWs)   bands (ev):

   -26.7159 -26.6178 -26.5957 -26.5204 -26.5079 -26.4804 -26.4678 -26.4589
   -26.4041 -26.3112 -15.1776 -13.5611  -7.2572  -5.7632  -5.4769  -2.8781
    -1.8460  -0.9183   0.7276

          k = 0.4388 0.2533 0.0000 (  8184 PWs)   bands (ev):

   -26.7157 -26.6166 -26.5935 -26.5175 -26.5053 -26.4830 -26.4703 -26.4625
   -26.4041 -26.3113 -15.1389 -13.5973  -7.2657  -5.7923  -5.4903  -2.8440
    -1.8850  -0.9200   0.7153

          k = 0.4490 0.2592 0.0000 (  8178 PWs)   bands (ev):

   -26.7155 -26.6158 -26.5913 -26.5147 -26.5028 -26.4855 -26.4728 -26.4657
   -26.4042 -26.3114 -15.1043 -13.6299  -7.2724  -5.8176  -5.5017  -2.8120
    -1.9208  -0.9215   0.7036

          k = 0.4592 0.2651 0.0000 (  8180 PWs)   bands (ev):

   -26.7153 -26.6152 -26.5893 -26.5120 -26.5004 -26.4880 -26.4751 -26.4685
   -26.4042 -26.3114 -15.0745 -13.6582  -7.2775  -5.8387  -5.5110  -2.7833
    -1.9526  -0.9228   0.6931

          k = 0.4694 0.2710 0.0000 (  8180 PWs)   bands (ev):

   -26.7152 -26.6148 -26.5875 -26.5094 -26.4983 -26.4905 -26.4772 -26.4709
   -26.4042 -26.3115 -15.0502 -13.6813  -7.2812  -5.8555  -5.5183  -2.7591
    -1.9792  -0.9239   0.6844

          k = 0.4796 0.2769 0.0000 (  8170 PWs)   bands (ev):

   -26.7151 -26.6146 -26.5862 -26.5069 -26.4964 -26.4928 -26.4788 -26.4727
   -26.4042 -26.3115 -15.0322 -13.6985  -7.2837  -5.8676  -5.5234  -2.7405
    -1.9994  -0.9246   0.6780

          k = 0.4898 0.2828 0.0000 (  8172 PWs)   bands (ev):

   -26.7151 -26.6144 -26.5853 -26.5049 -26.4952 -26.4948 -26.4799 -26.4739
   -26.4042 -26.3115 -15.0211 -13.7090  -7.2852  -5.8749  -5.5266  -2.7287
    -2.0121  -0.9251   0.6740

          k = 0.5000 0.2887 0.0000 (  8166 PWs)   bands (ev):

   -26.7151 -26.6143 -26.5850 -26.5041 -26.4956 -26.4948 -26.4802 -26.4743
   -26.4042 -26.3115 -15.0174 -13.7126  -7.2857  -5.8773  -5.5276  -2.7247
    -2.0164  -0.9253   0.6728

          k = 0.4954 0.2967 0.0000 (  8174 PWs)   bands (ev):

   -26.7151 -26.6143 -26.5849 -26.5042 -26.4967 -26.4937 -26.4801 -26.4743
   -26.4042 -26.3115 -15.0168 -13.7130  -7.2854  -5.8773  -5.5313  -2.7195
    -2.0169  -0.9287   0.6739

          k = 0.4907 0.3047 0.0000 (  8172 PWs)   bands (ev):

   -26.7150 -26.6141 -26.5849 -26.5045 -26.4981 -26.4923 -26.4798 -26.4744
   -26.4043 -26.3116 -15.0151 -13.7142  -7.2846  -5.8771  -5.5421  -2.7042
    -2.0184  -0.9390   0.6775

          k = 0.4861 0.3127 0.0000 (  8172 PWs)   bands (ev):

   -26.7150 -26.6138 -26.5846 -26.5051 -26.4996 -26.4909 -26.4793 -26.4746
   -26.4045 -26.3117 -15.0122 -13.7162  -7.2832  -5.8769  -5.5599  -2.6789
    -2.0209  -0.9556   0.6836

          k = 0.4815 0.3208 0.0000 (  8168 PWs)   bands (ev):

   -26.7150 -26.6134 -26.5843 -26.5058 -26.5010 -26.4895 -26.4786 -26.4748
   -26.4047 -26.3118 -15.0081 -13.7190  -7.2813  -5.8765  -5.5839  -2.6443
    -2.0246  -0.9778   0.6921

          k = 0.4769 0.3288 0.0000 (  8174 PWs)   bands (ev):

   -26.7150 -26.6129 -26.5840 -26.5068 -26.5025 -26.4881 -26.4778 -26.4750
   -26.4050 -26.3120 -15.0030 -13.7226  -7.2790  -5.8761  -5.6138  -2.6012
    -2.0296  -1.0050   0.7031

          k = 0.4722 0.3368 0.0000 (  8190 PWs)   bands (ev):

   -26.7150 -26.6123 -26.5835 -26.5079 -26.5041 -26.4869 -26.4768 -26.4754
   -26.4054 -26.3122 -14.9966 -13.7270  -7.2762  -5.8757  -5.6486  -2.5502
    -2.0362  -1.0362   0.7166

          k = 0.4676 0.3448 0.0000 (  8202 PWs)   bands (ev):

   -26.7150 -26.6116 -26.5830 -26.5090 -26.5056 -26.4856 -26.4758 -26.4757
   -26.4058 -26.3125 -14.9892 -13.7322  -7.2731  -5.8753  -5.6876  -2.4923
    -2.0447  -1.0701   0.7328

          k = 0.4630 0.3528 0.0000 (  8186 PWs)   bands (ev):

   -26.7150 -26.6107 -26.5823 -26.5103 -26.5071 -26.4843 -26.4760 -26.4747
   -26.4063 -26.3127 -14.9806 -13.7383  -7.2696  -5.8749  -5.7298  -2.4283
    -2.0553  -1.1056   0.7519

          k = 0.4583 0.3608 0.0000 (  8178 PWs)   bands (ev):

   -26.7149 -26.6097 -26.5815 -26.5116 -26.5085 -26.4832 -26.4763 -26.4735
   -26.4068 -26.3129 -14.9708 -13.7453  -7.2658  -5.8747  -5.7747  -2.3592
    -2.0684  -1.1417   0.7738

          k = 0.4537 0.3689 0.0000 (  8186 PWs)   bands (ev):

   -26.7149 -26.6087 -26.5807 -26.5129 -26.5101 -26.4824 -26.4765 -26.4723
   -26.4074 -26.3133 -14.9600 -13.7531  -7.2619  -5.8745  -5.8212  -2.2860
    -2.0844  -1.1772   0.7985

          k = 0.4491 0.3769 0.0000 (  8190 PWs)   bands (ev):

   -26.7149 -26.6075 -26.5798 -26.5144 -26.5116 -26.4819 -26.4764 -26.4710
   -26.4081 -26.3136 -14.9480 -13.7618  -7.2580  -5.8746  -5.8688  -2.2095
    -2.1036  -1.2110   0.8264

          k = 0.4444 0.3849 0.0000 (  8190 PWs)   bands (ev):

   -26.7148 -26.6063 -26.5789 -26.5158 -26.5131 -26.4818 -26.4760 -26.4697
   -26.4088 -26.3140 -14.9349 -13.7715  -7.2541  -5.9166  -5.8750  -2.1306
    -2.1262  -1.2423   0.8575

          k = 0.4398 0.3929 0.0000 (  8178 PWs)   bands (ev):

   -26.7147 -26.6048 -26.5778 -26.5173 -26.5146 -26.4821 -26.4752 -26.4684
   -26.4096 -26.3143 -14.9207 -13.7820  -7.2504  -5.9639  -5.8757  -2.1523
    -2.0500  -1.2702   0.8920

          k = 0.4352 0.4009 0.0000 (  8172 PWs)   bands (ev):

   -26.7146 -26.6033 -26.5766 -26.5188 -26.5161 -26.4828 -26.4743 -26.4671
   -26.4104 -26.3147 -14.9053 -13.7936  -7.2471  -6.0103  -5.8768  -2.1819
    -1.9687  -1.2943   0.9301

          k = 0.4306 0.4090 0.0000 (  8186 PWs)   bands (ev):

   -26.7146 -26.6018 -26.5754 -26.5203 -26.5176 -26.4837 -26.4732 -26.4657
   -26.4113 -26.3151 -14.8890 -13.8061  -7.2442  -6.0551  -5.8784  -2.2149
    -1.8874  -1.3143   0.9717

          k = 0.4259 0.4170 0.0000 (  8186 PWs)   bands (ev):

   -26.7145 -26.6002 -26.5741 -26.5219 -26.5191 -26.4847 -26.4721 -26.4644
   -26.4123 -26.3155 -14.8715 -13.8196  -7.2420  -6.0976  -5.8806  -2.2510
    -1.8069  -1.3299   1.0171

          k = 0.4213 0.4250 0.0000 (  8174 PWs)   bands (ev):

   -26.7144 -26.5984 -26.5727 -26.5234 -26.5206 -26.4859 -26.4709 -26.4631
   -26.4133 -26.3159 -14.8529 -13.8341  -7.2407  -6.1375  -5.8835  -2.2895
    -1.7278  -1.3413   1.0666

          k = 0.4167 0.4330 0.0000 (  8174 PWs)   bands (ev):

   -26.7143 -26.5966 -26.5712 -26.5249 -26.5221 -26.4872 -26.4697 -26.4617
   -26.4143 -26.3163 -14.8333 -13.8496  -7.2403  -6.1743  -5.8872  -2.3299
    -1.6509  -1.3488   1.1201

          k = 0.4120 0.4410 0.0000 (  8166 PWs)   bands (ev):

   -26.7142 -26.5946 -26.5697 -26.5264 -26.5236 -26.4886 -26.4686 -26.4604
   -26.4154 -26.3167 -14.8127 -13.8662  -7.2411  -6.2075  -5.8917  -2.3717
    -1.5768  -1.3524   1.1777

          k = 0.4074 0.4491 0.0000 (  8168 PWs)   bands (ev):

   -26.7142 -26.5927 -26.5680 -26.5280 -26.5251 -26.4901 -26.4674 -26.4590
   -26.4166 -26.3171 -14.7910 -13.8839  -7.2432  -6.2369  -5.8972  -2.4142
    -1.5063  -1.3527   1.2392

          k = 0.4028 0.4571 0.0000 (  8164 PWs)   bands (ev):

   -26.7141 -26.5906 -26.5663 -26.5295 -26.5266 -26.4917 -26.4663 -26.4577
   -26.4178 -26.3175 -14.7683 -13.9027  -7.2466  -6.2620  -5.9038  -2.4567
    -1.4397  -1.3500   1.3047

          k = 0.3981 0.4651 0.0000 (  8160 PWs)   bands (ev):

   -26.7140 -26.5885 -26.5645 -26.5310 -26.5281 -26.4934 -26.4652 -26.4564
   -26.4191 -26.3178 -14.7446 -13.9226  -7.2514  -6.2828  -5.9115  -2.4986
    -1.3778  -1.3445   1.3738

          k = 0.3935 0.4731 0.0000 (  8162 PWs)   bands (ev):

   -26.7139 -26.5863 -26.5626 -26.5325 -26.5296 -26.4952 -26.4641 -26.4551
   -26.4204 -26.3182 -14.7199 -13.9436  -7.2575  -6.2991  -5.9204  -2.5396
    -1.3366  -1.3208   1.4461

          k = 0.3889 0.4811 0.0000 (  8154 PWs)   bands (ev):

   -26.7138 -26.5840 -26.5607 -26.5339 -26.5310 -26.4972 -26.4630 -26.4538
   -26.4217 -26.3185 -14.6943 -13.9657  -7.2648  -6.3108  -5.9306  -2.5789
    -1.3266  -1.2693   1.5210

          k = 0.3843 0.4891 0.0000 (  8150 PWs)   bands (ev):

   -26.7138 -26.5816 -26.5588 -26.5353 -26.5325 -26.4992 -26.4619 -26.4524
   -26.4231 -26.3188 -14.6677 -13.9890  -7.2731  -6.3181  -5.9423  -2.6164
    -1.3147  -1.2235   1.5975

          k = 0.3796 0.4972 0.0000 (  8150 PWs)   bands (ev):

   -26.7137 -26.5792 -26.5568 -26.5367 -26.5339 -26.5013 -26.4609 -26.4512
   -26.4246 -26.3191 -14.6402 -14.0134  -7.2822  -6.3211  -5.9554  -2.6515
    -1.3012  -1.1837   1.6741

          k = 0.3750 0.5052 0.0000 (  8146 PWs)   bands (ev):

   -26.7136 -26.5768 -26.5548 -26.5379 -26.5354 -26.5036 -26.4599 -26.4499
   -26.4260 -26.3194 -14.6117 -14.0390  -7.2919  -6.3199  -5.9699  -2.6839
    -1.2863  -1.1500   1.7488

          k = 0.3704 0.5132 0.0000 (  8138 PWs)   bands (ev):

   -26.7135 -26.5743 -26.5529 -26.5389 -26.5368 -26.5059 -26.4589 -26.4486
   -26.4275 -26.3196 -14.5824 -14.0657  -7.3017  -6.3149  -5.9860  -2.7135
    -1.2701  -1.1226   1.8177

          k = 0.3657 0.5212 0.0000 (  8142 PWs)   bands (ev):

   -26.7135 -26.5718 -26.5513 -26.5395 -26.5383 -26.5083 -26.4580 -26.4474
   -26.4291 -26.3198 -14.5522 -14.0936  -7.3114  -6.3062  -6.0036  -2.7399
    -1.2529  -1.1014   1.8754

          k = 0.3611 0.5292 0.0000 (  8146 PWs)   bands (ev):

   -26.7134 -26.5693 -26.5501 -26.5397 -26.5396 -26.5109 -26.4572 -26.4462
   -26.4306 -26.3201 -14.5212 -14.1225  -7.3206  -6.2942  -6.0227  -2.7631
    -1.2349  -1.0865   1.9152

          k = 0.3565 0.5373 0.0000 (  8142 PWs)   bands (ev):

   -26.7134 -26.5667 -26.5495 -26.5412 -26.5389 -26.5135 -26.4564 -26.4450
   -26.4321 -26.3202 -14.4894 -14.1526  -7.3291  -6.2792  -6.0434  -2.7828
    -1.2161  -1.0776   1.9348

          k = 0.3519 0.5453 0.0000 (  8134 PWs)   bands (ev):

   -26.7134 -26.5643 -26.5495 -26.5426 -26.5374 -26.5161 -26.4556 -26.4438
   -26.4336 -26.3204 -14.4567 -14.1838  -7.3366  -6.2613  -6.0655  -2.7990
    -1.1967  -1.0746   1.9401

          k = 0.3472 0.5533 0.0000 (  8134 PWs)   bands (ev):

   -26.7133 -26.5620 -26.5498 -26.5441 -26.5354 -26.5189 -26.4550 -26.4426
   -26.4351 -26.3205 -14.4234 -14.2160  -7.3427  -6.2409  -6.0889  -2.8115
    -1.1770  -1.0772   1.9386

          k = 0.3426 0.5613 0.0000 (  8126 PWs)   bands (ev):

   -26.7133 -26.5600 -26.5501 -26.5456 -26.5329 -26.5216 -26.4545 -26.4414
   -26.4366 -26.3205 -14.3892 -14.2493  -7.3474  -6.2182  -6.1137  -2.8205
    -1.1569  -1.0853   1.9352

          k = 0.3380 0.5693 0.0000 (  8126 PWs)   bands (ev):

   -26.7132 -26.5586 -26.5498 -26.5471 -26.5302 -26.5245 -26.4542 -26.4403
   -26.4380 -26.3206 -14.3544 -14.2837  -7.3503  -6.1935  -6.1397  -2.8259
    -1.1366  -1.0985   1.9324

          k = 0.3333 0.5774 0.0000 (  8124 PWs)   bands (ev):

   -26.7132 -26.5582 -26.5487 -26.5487 -26.5274 -26.5274 -26.4540 -26.4392
   -26.4392 -26.3206 -14.3190 -14.3190  -7.3513  -6.1668  -6.1668  -2.8276
    -1.1164  -1.1164   1.9314

          k = 0.3261 0.5648 0.0000 (  8130 PWs)   bands (ev):

   -26.7133 -26.5589 -26.5512 -26.5455 -26.5320 -26.5227 -26.4544 -26.4406
   -26.4374 -26.3206 -14.3761 -14.2622  -7.3487  -6.2110  -6.1216  -2.8234
    -1.1531  -1.0851   1.9341

          k = 0.3188 0.5522 0.0000 (  8130 PWs)   bands (ev):

   -26.7133 -26.5604 -26.5539 -26.5415 -26.5365 -26.5177 -26.4556 -26.4414
   -26.4358 -26.3205 -14.4355 -14.2040  -7.3407  -6.2571  -6.0728  -2.8107
    -1.1992  -1.0546   1.9421

          k = 0.3116 0.5397 0.0000 (  8144 PWs)   bands (ev):

   -26.7134 -26.5623 -26.5569 -26.5409 -26.5373 -26.5126 -26.4577 -26.4415
   -26.4341 -26.3203 -14.4969 -14.1446  -7.3269  -6.3043  -6.0210  -2.7902
    -1.2532  -1.0255   1.9535

          k = 0.3043 0.5271 0.0000 (  8144 PWs)   bands (ev):

   -26.7135 -26.5642 -26.5603 -26.5449 -26.5329 -26.5072 -26.4604 -26.4412
   -26.4325 -26.3201 -14.5601 -14.0841  -7.3071  -6.3520  -5.9666  -2.7621
    -1.3136  -0.9984   1.9654

          k = 0.2971 0.5146 0.0000 (  8152 PWs)   bands (ev):

   -26.7136 -26.5661 -26.5643 -26.5485 -26.5284 -26.5016 -26.4634 -26.4406
   -26.4309 -26.3198 -14.6249 -14.0226  -7.2813  -6.3997  -5.9100  -2.7271
    -1.3790  -0.9738   1.9728

          k = 0.2899 0.5020 0.0000 (  8144 PWs)   bands (ev):

   -26.7138 -26.5688 -26.5679 -26.5515 -26.5240 -26.4959 -26.4668 -26.4398
   -26.4294 -26.3194 -14.6911 -13.9605  -7.2493  -6.4465  -5.8517  -2.6857
    -1.4483  -0.9523   1.9182

          k = 0.2826 0.4895 0.0000 (  8144 PWs)   bands (ev):

   -26.7139 -26.5738 -26.5698 -26.5542 -26.5195 -26.4900 -26.4703 -26.4390
   -26.4279 -26.3190 -14.7586 -13.8978  -7.2111  -6.4919  -5.7920  -2.6386
    -1.5202  -0.9342   1.8165

          k = 0.2754 0.4769 0.0000 (  8170 PWs)   bands (ev):

   -26.7142 -26.5792 -26.5717 -26.5567 -26.5150 -26.4841 -26.4740 -26.4382
   -26.4265 -26.3187 -14.8271 -13.8347  -7.1669  -6.5352  -5.7314  -2.5863
    -1.5938  -0.9201   1.7159

          k = 0.2681 0.4644 0.0000 (  8176 PWs)   bands (ev):

   -26.7145 -26.5848 -26.5735 -26.5588 -26.5106 -26.4781 -26.4778 -26.4374
   -26.4250 -26.3182 -14.8964 -13.7715  -7.1168  -6.5758  -5.6701  -2.5296
    -1.6680  -0.9103   1.6167

          k = 0.2609 0.4518 0.0000 (  8180 PWs)   bands (ev):

   -26.7148 -26.5906 -26.5752 -26.5607 -26.5062 -26.4817 -26.4719 -26.4365
   -26.4236 -26.3177 -14.9662 -13.7084  -7.0607  -6.6131  -5.6087  -2.4689
    -1.7421  -0.9048   1.5191

          k = 0.2536 0.4393 0.0000 (  8176 PWs)   bands (ev):

   -26.7151 -26.5965 -26.5768 -26.5625 -26.5018 -26.4857 -26.4657 -26.4357
   -26.4222 -26.3172 -15.0363 -13.6456  -6.9990  -6.6466  -5.5474  -2.4052
    -1.8151  -0.9038   1.4232

          k = 0.2464 0.4267 0.0000 (  8176 PWs)   bands (ev):

   -26.7155 -26.6024 -26.5784 -26.5641 -26.4975 -26.4897 -26.4595 -26.4348
   -26.4208 -26.3167 -15.1066 -13.5833  -6.9317  -6.6757  -5.4867  -2.3391
    -1.8865  -0.9071   1.3291

          k = 0.2391 0.4142 0.0000 (  8158 PWs)   bands (ev):

   -26.7158 -26.6084 -26.5799 -26.5657 -26.4938 -26.4931 -26.4532 -26.4340
   -26.4194 -26.3161 -15.1769 -13.5217  -6.8591  -6.6999  -5.4269  -2.2715
    -1.9556  -0.9143   1.2370

          k = 0.2319 0.4016 0.0000 (  8158 PWs)   bands (ev):

   -26.7162 -26.6144 -26.5814 -26.5672 -26.4979 -26.4889 -26.4470 -26.4332
   -26.4180 -26.3156 -15.2468 -13.4612  -6.7815  -6.7188  -5.3685  -2.2035
    -2.0217  -0.9249   1.1471

          k = 0.2246 0.3891 0.0000 (  8160 PWs)   bands (ev):

   -26.7166 -26.6204 -26.5827 -26.5686 -26.5021 -26.4849 -26.4409 -26.4325
   -26.4165 -26.3150 -15.3163 -13.4019  -6.7319  -6.6989  -5.3119  -2.1362
    -2.0844  -0.9381   1.0595

          k = 0.2174 0.3765 0.0000 (  8174 PWs)   bands (ev):

   -26.7171 -26.6264 -26.5841 -26.5700 -26.5062 -26.4810 -26.4350 -26.4318
   -26.4148 -26.3144 -15.3851 -13.3441  -6.7389  -6.6117  -5.2576  -2.1432
    -2.0708  -0.9530   0.9744

          k = 0.2101 0.3640 0.0000 (  8186 PWs)   bands (ev):

   -26.7176 -26.6324 -26.5854 -26.5713 -26.5104 -26.4771 -26.4311 -26.4295
   -26.4128 -26.3139 -15.4532 -13.2879  -6.7394  -6.5202  -5.2058  -2.1976
    -2.0088  -0.9683   0.8920

          k = 0.2029 0.3514 0.0000 (  8194 PWs)   bands (ev):

   -26.7181 -26.6382 -26.5867 -26.5726 -26.5146 -26.4733 -26.4305 -26.4248
   -26.4101 -26.3133 -15.5202 -13.2336  -6.7330  -6.4246  -5.1570  -2.2470
    -1.9519  -0.9826   0.8125

          k = 0.1957 0.3389 0.0000 (  8194 PWs)   bands (ev):

   -26.7186 -26.6440 -26.5878 -26.5738 -26.5188 -26.4696 -26.4298 -26.4210
   -26.4065 -26.3128 -15.5860 -13.1814  -6.7195  -6.3253  -5.1116  -2.2912
    -1.9021  -0.9945   0.7360

          k = 0.1884 0.3263 0.0000 (  8202 PWs)   bands (ev):

   -26.7191 -26.6496 -26.5889 -26.5750 -26.5230 -26.4660 -26.4292 -26.4183
   -26.4019 -26.3123 -15.6506 -13.1313  -6.6987  -6.2226  -5.0699  -2.3297
    -1.8612  -1.0025   0.6628

          k = 0.1812 0.3138 0.0000 (  8190 PWs)   bands (ev):

   -26.7196 -26.6551 -26.5898 -26.5761 -26.5271 -26.4625 -26.4286 -26.4163
   -26.3966 -26.3118 -15.7137 -13.0837  -6.6703  -6.1169  -5.0321  -2.3623
    -1.8310  -1.0055   0.5931

          k = 0.1739 0.3012 0.0000 (  8201 PWs)   bands (ev):

   -26.7202 -26.6606 -26.5908 -26.5772 -26.5312 -26.4591 -26.4281 -26.4148
   -26.3911 -26.3113 -15.7753 -13.0385  -6.6343  -6.0086  -4.9983  -2.3888
    -1.8127  -1.0032   0.5269

          k = 0.1667 0.2887 0.0000 (  8197 PWs)   bands (ev):

   -26.7208 -26.6658 -26.5916 -26.5783 -26.5351 -26.4559 -26.4275 -26.4136
   -26.3853 -26.3108 -15.8351 -12.9960  -6.5904  -5.8981  -4.9688  -2.4090
    -1.8066  -0.9961   0.4645

          k = 0.1594 0.2761 0.0000 (  8185 PWs)   bands (ev):

   -26.7213 -26.6709 -26.5924 -26.5793 -26.5389 -26.4528 -26.4270 -26.4125
   -26.3795 -26.3103 -15.8931 -12.9561  -6.5386  -5.7862  -4.9433  -2.4228
    -1.8121  -0.9859   0.4058

          k = 0.1522 0.2636 0.0000 (  8197 PWs)   bands (ev):

   -26.7219 -26.6759 -26.5931 -26.5803 -26.5428 -26.4499 -26.4265 -26.4116
   -26.3738 -26.3099 -15.9492 -12.9189  -6.4789  -5.6734  -4.9216  -2.4300
    -1.8280  -0.9748   0.3506

          k = 0.1449 0.2510 0.0000 (  8189 PWs)   bands (ev):

   -26.7225 -26.6806 -26.5938 -26.5813 -26.5464 -26.4471 -26.4261 -26.4107
   -26.3682 -26.3095 -16.0033 -12.8844  -6.4114  -5.5605  -4.9034  -2.4307
    -1.8529  -0.9653   0.2989

          k = 0.1377 0.2385 0.0000 (  8195 PWs)   bands (ev):

   -26.7231 -26.6852 -26.5945 -26.5823 -26.5499 -26.4444 -26.4256 -26.4099
   -26.3627 -26.3091 -16.0553 -12.8527  -6.3361  -5.4486  -4.8880  -2.4250
    -1.8853  -0.9598   0.2500

          k = 0.1304 0.2259 0.0000 (  8189 PWs)   bands (ev):

   -26.7237 -26.6896 -26.5950 -26.5832 -26.5532 -26.4419 -26.4252 -26.4092
   -26.3574 -26.3087 -16.1050 -12.8235  -6.2532  -5.3393  -4.8740  -2.4127
    -1.9242  -0.9601   0.2033

          k = 0.1232 0.2134 0.0000 (  8197 PWs)   bands (ev):

   -26.7243 -26.6938 -26.5956 -26.5842 -26.5564 -26.4396 -26.4248 -26.4086
   -26.3522 -26.3084 -16.1525 -12.7969  -6.1628  -5.2350  -4.8594  -2.3940
    -1.9686  -0.9676   0.1582

          k = 0.1159 0.2008 0.0000 (  8197 PWs)   bands (ev):

   -26.7248 -26.6978 -26.5960 -26.5853 -26.5594 -26.4374 -26.4245 -26.4079
   -26.3473 -26.3081 -16.1976 -12.7729  -6.0652  -5.1403  -4.8400  -2.3688
    -2.0182  -0.9830   0.1139

          k = 0.1087 0.1883 0.0000 (  8221 PWs)   bands (ev):

   -26.7254 -26.7016 -26.5965 -26.5864 -26.5622 -26.4354 -26.4242 -26.4073
   -26.3426 -26.3078 -16.2403 -12.7512  -5.9606  -5.0629  -4.8085  -2.3373
    -2.0727  -1.0063   0.0699

          k = 0.1014 0.1757 0.0000 (  8221 PWs)   bands (ev):

   -26.7260 -26.7052 -26.5969 -26.5874 -26.5647 -26.4335 -26.4238 -26.4067
   -26.3381 -26.3075 -16.2805 -12.7317  -5.8493  -5.0109  -4.7571  -2.2993
    -2.1323  -1.0371   0.0256

          k = 0.0942 0.1632 0.0000 (  8205 PWs)   bands (ev):

   -26.7265 -26.7085 -26.5972 -26.5885 -26.5669 -26.4318 -26.4235 -26.4062
   -26.3338 -26.3072 -16.3182 -12.7144  -5.7316  -4.9837  -4.6870  -2.2549
    -2.1973  -1.0745  -0.0187

          k = 0.0870 0.1506 0.0000 (  8219 PWs)   bands (ev):

   -26.7270 -26.7117 -26.5976 -26.5897 -26.5690 -26.4302 -26.4233 -26.4057
   -26.3298 -26.3070 -16.3532 -12.6991  -5.6079  -4.9723  -4.6074  -2.2684
    -2.2043  -1.1173  -0.0626

          k = 0.0797 0.1381 0.0000 (  8211 PWs)   bands (ev):

   -26.7274 -26.7146 -26.5978 -26.5908 -26.5708 -26.4288 -26.4230 -26.4052
   -26.3260 -26.3067 -16.3857 -12.6857  -5.4787  -4.9694  -4.5262  -2.3461
    -2.1476  -1.1640  -0.1056

          k = 0.0725 0.1255 0.0000 (  8209 PWs)   bands (ev):

   -26.7278 -26.7172 -26.5980 -26.5919 -26.5725 -26.4274 -26.4227 -26.4048
   -26.3226 -26.3065 -16.4154 -12.6739  -5.3444  -4.9710  -4.4478  -2.4312
    -2.0853  -1.2129  -0.1470

          k = 0.0652 0.1130 0.0000 (  8223 PWs)   bands (ev):

   -26.7282 -26.7197 -26.5983 -26.5931 -26.5738 -26.4263 -26.4226 -26.4044
   -26.3194 -26.3064 -16.4424 -12.6638  -5.2056  -4.9750  -4.3745  -2.5242
    -2.0180  -1.2622  -0.1859

          k = 0.0580 0.1004 0.0000 (  8211 PWs)   bands (ev):

   -26.7286 -26.7218 -26.5984 -26.5942 -26.5750 -26.4253 -26.4224 -26.4039
   -26.3165 -26.3062 -16.4667 -12.6551  -5.0629  -4.9803  -4.3077  -2.6254
    -1.9466  -1.3101  -0.2218

          k = 0.0507 0.0879 0.0000 (  8215 PWs)   bands (ev):

   -26.7289 -26.7237 -26.5986 -26.5952 -26.5759 -26.4244 -26.4222 -26.4036
   -26.3140 -26.3060 -16.4881 -12.6477  -4.9859  -4.9172  -4.2482  -2.7348
    -1.8728  -1.3550  -0.2540

          k = 0.0435 0.0753 0.0000 (  8213 PWs)   bands (ev):

   -26.7292 -26.7254 -26.5987 -26.5962 -26.5767 -26.4237 -26.4221 -26.4033
   -26.3118 -26.3059 -16.5068 -12.6416  -4.9916  -4.7693  -4.1964  -2.8517
    -1.7983  -1.3957  -0.2824

          k = 0.0362 0.0628 0.0000 (  8227 PWs)   bands (ev):

   -26.7294 -26.7268 -26.5989 -26.5971 -26.5774 -26.4231 -26.4220 -26.4030
   -26.3099 -26.3058 -16.5226 -12.6365  -4.9969  -4.6207  -4.1528  -2.9749
    -1.7258  -1.4311  -0.3065

          k = 0.0290 0.0502 0.0000 (  8227 PWs)   bands (ev):

   -26.7296 -26.7279 -26.5990 -26.5978 -26.5779 -26.4226 -26.4219 -26.4028
   -26.3084 -26.3057 -16.5356 -12.6325  -5.0016  -4.4732  -4.1171  -3.1022
    -1.6584  -1.4606  -0.3265

          k = 0.0217 0.0377 0.0000 (  8229 PWs)   bands (ev):

   -26.7298 -26.7288 -26.5990 -26.5984 -26.5783 -26.4222 -26.4218 -26.4026
   -26.3072 -26.3057 -16.5457 -12.6295  -5.0054  -4.3305  -4.0896  -3.2297
    -1.5996  -1.4839  -0.3416

          k = 0.0145 0.0251 0.0000 (  8241 PWs)   bands (ev):

   -26.7299 -26.7295 -26.5992 -26.5988 -26.5786 -26.4219 -26.4218 -26.4025
   -26.3063 -26.3057 -16.5529 -12.6274  -5.0082  -4.1996  -4.0699  -3.3501
    -1.5537  -1.5005  -0.3530

          k = 0.0072 0.0126 0.0000 (  8227 PWs)   bands (ev):

   -26.7299 -26.7298 -26.5992 -26.5991 -26.5787 -26.4217 -26.4217 -26.4023
   -26.3058 -26.3056 -16.5573 -12.6261  -5.0099  -4.0967  -4.0582  -3.4469
    -1.5241  -1.5106  -0.3592

          k = 0.0000 0.0000 0.0000 (  8243 PWs)   bands (ev):

   -26.7300 -26.7300 -26.5992 -26.5992 -26.5788 -26.4217 -26.4217 -26.4024
   -26.3057 -26.3057 -16.5587 -12.6257  -5.0105  -4.0543  -4.0543  -3.4872
    -1.5139  -1.5139  -0.3612

     Writing output data file aiida.save
 
     init_run     :      5.26s CPU      5.45s WALL (       1 calls)
     electrons    :     23.93s CPU     24.08s WALL (       1 calls)

     Called by init_run:
     wfcinit      :      0.00s CPU      0.00s WALL (       1 calls)
     potinit      :      2.68s CPU      2.82s WALL (       1 calls)

     Called by electrons:
     c_bands      :     23.92s CPU     24.08s WALL (       1 calls)
     v_of_rho     :      0.26s CPU      0.29s WALL (       1 calls)
     v_h          :      0.02s CPU      0.02s WALL (       1 calls)
     v_xc         :      0.24s CPU      0.27s WALL (       1 calls)
     newd         :      1.80s CPU      1.82s WALL (       1 calls)

     Called by c_bands:
     init_us_2    :      0.01s CPU      0.01s WALL (       2 calls)
     ccgdiagg     :     21.18s CPU     21.29s WALL (      12 calls)
     wfcrot       :      1.48s CPU      1.49s WALL (      12 calls)

     Called by sum_band:

     Called by *cgdiagg:
     h_psi        :     16.08s CPU     16.19s WALL (    1839 calls)
     s_psi        :      2.96s CPU      3.16s WALL (    3666 calls)
     cdiaghg      :      0.00s CPU      0.00s WALL (      12 calls)

     Called by h_psi:
     h_psi:vloc   :     11.57s CPU     11.59s WALL (    1839 calls)
     h_psi:vnl    :      4.42s CPU      4.51s WALL (    1839 calls)
     add_vuspsi   :      2.80s CPU      2.72s WALL (    1839 calls)

     General routines
     calbec       :      3.23s CPU      3.43s WALL (    3666 calls)
     fft          :      0.26s CPU      0.28s WALL (      13 calls)
     ffts         :      0.00s CPU      0.00s WALL (       1 calls)
     fftw         :      8.01s CPU      8.05s WALL (    4110 calls)
     interpolate  :      0.02s CPU      0.02s WALL (       1 calls)
     davcio       :      0.00s CPU      0.01s WALL (       2 calls)
 
     Parallel routines
     fft_scatter  :      1.60s CPU      1.70s WALL (    4124 calls)

     PAW routines
     PAW_pot      :      0.05s CPU      0.06s WALL (       1 calls)
 
     PWSCF        :    29.87s CPU        33.41s WALL

 
   This run was terminated on:   5:58:40   6Jan2017            

=------------------------------------------------------------------------------=
   JOB DONE.
=------------------------------------------------------------------------------=
