
     Program PWSCF v.5.1 starts on  6Jan2017 at  6: 5:39 

     This program is part of the open-source Quantum ESPRESSO suite
     for quantum simulation of materials; please cite
         "P. Giannozzi et al., J. Phys.:Condens. Matter 21 395502 (2009);
          URL http://www.quantum-espresso.org", 
     in publications or presentations arising from this work. More details at
     http://www.quantum-espresso.org/quote

     Parallel version (MPI), running on    66 processors
     K-points division:     npool     =      66
     Reading input from aiida.in

     Current dimensions of program PWSCF are:
     Max number of different atomic species (ntypx) = 10
     Max number of k-points (npk) =  40000
     Max angular momentum in pseudopotentials (lmaxx) =  3

     Atomic positions and unit cell read from directory:
     ./out/aiida.save/
 
               file Pb.pbe-dn-kjpaw_psl.0.2.2.UPF: wavefunction(s)  6S renormalized

     Subspace diagonalization in iterative solution of the eigenvalue problem:
     a serial algorithm will be used

 
     G-vector sticks info
     --------------------
     sticks:   dense  smooth     PW     G-vecs:    dense   smooth      PW
     Sum        1687     847    253               290999   103111   16081
 
 ----2D----2D----2D----2D----2D----2D
 THE CODE IS RUNNING WITH 2D CUTOFF
 ----2D----2D----2D----2D----2D----2D


     bravais-lattice index     =            0
     lattice parameter (alat)  =       8.7775  a.u.
     unit-cell volume          =    3013.6866 (a.u.)^3
     number of atoms/cell      =            3
     number of atomic types    =            2
     number of electrons       =        28.00
     number of Kohn-Sham states=           18
     kinetic-energy cutoff     =      40.0000  Ry
     charge density cutoff     =     320.0000  Ry
     Exchange-correlation      =  SLA  PW   PBX  PBC ( 1  4  3  4 0 0)

     celldm(1)=   8.777465  celldm(2)=   0.000000  celldm(3)=   0.000000
     celldm(4)=   0.000000  celldm(5)=   0.000000  celldm(6)=   0.000000

     crystal axes: (cart. coord. in units of alat)
               a(1) = (   1.000000   0.000000   0.000000 )  
               a(2) = (  -0.500000   0.866025   0.000000 )  
               a(3) = (   0.000000   0.000000   5.145885 )  

     reciprocal axes: (cart. coord. in units 2 pi/alat)
               b(1) = (  1.000000  0.577350  0.000000 )  
               b(2) = (  0.000000  1.154701  0.000000 )  
               b(3) = (  0.000000  0.000000  0.194330 )  


     PseudoPot. # 1 for I  read from file:
     ./pseudo/i_pbe_v1.uspp.F.UPF
     MD5 check sum: 51366c2fb896752a147e77acbb9f6bcb
     Pseudo is Ultrasoft + core correction, Zval =  7.0
     Generated by new atomic code, or converted to UPF format
     Using radial grid of  893 points,  6 beta functions with: 
                l(1) =   0
                l(2) =   0
                l(3) =   1
                l(4) =   1
                l(5) =   2
                l(6) =   2
     Q(r) pseudized with  8 coefficients,  rinner =    1.500   1.500   1.500
                                                       1.500   1.500

     PseudoPot. # 2 for Pb read from file:
     ./pseudo/Pb.pbe-dn-kjpaw_psl.0.2.2.UPF
     MD5 check sum: 3430a4e844b953b651517319381e3a28
     Pseudo is Projector augmented-wave + core cor, Zval = 14.0
     Generated using "atomic" code by A. Dal Corso  v.5.0.99 svn rev. 10869
     Shape of augmentation charge: PSQ
     Using radial grid of 1281 points,  6 beta functions with: 
                l(1) =   0
                l(2) =   0
                l(3) =   1
                l(4) =   1
                l(5) =   2
                l(6) =   2
     Q(r) pseudized with 0 coefficients 


     atomic species   valence    mass     pseudopotential
        I              7.00   126.90450     I ( 1.00)
        Pb            14.00   207.20000     Pb( 1.00)

     12 Sym. Ops., with inversion, found


                                    s                        frac. trans.

      isym =  1     identity                                     

 cryst.   s( 1) = (     1          0          0      )
                  (     0          1          0      )
                  (     0          0          1      )

 cart.    s( 1) = (  1.0000000  0.0000000  0.0000000 )
                  (  0.0000000  1.0000000  0.0000000 )
                  (  0.0000000  0.0000000  1.0000000 )


      isym =  2     180 deg rotation - cart. axis [1,0,0]        

 cryst.   s( 2) = (     1          0          0      )
                  (    -1         -1          0      )
                  (     0          0         -1      )

 cart.    s( 2) = (  1.0000000  0.0000000  0.0000000 )
                  (  0.0000000 -1.0000000  0.0000000 )
                  (  0.0000000  0.0000000 -1.0000000 )


      isym =  3     120 deg rotation - cryst. axis [0,0,1]       

 cryst.   s( 3) = (     0          1          0      )
                  (    -1         -1          0      )
                  (     0          0          1      )

 cart.    s( 3) = ( -0.5000000 -0.8660254  0.0000000 )
                  (  0.8660254 -0.5000000  0.0000000 )
                  (  0.0000000  0.0000000  1.0000000 )


      isym =  4     120 deg rotation - cryst. axis [0,0,-1]      

 cryst.   s( 4) = (    -1         -1          0      )
                  (     1          0          0      )
                  (     0          0          1      )

 cart.    s( 4) = ( -0.5000000  0.8660254  0.0000000 )
                  ( -0.8660254 -0.5000000  0.0000000 )
                  (  0.0000000  0.0000000  1.0000000 )


      isym =  5     180 deg rotation - cryst. axis [0,1,0]       

 cryst.   s( 5) = (    -1         -1          0      )
                  (     0          1          0      )
                  (     0          0         -1      )

 cart.    s( 5) = ( -0.5000000 -0.8660254  0.0000000 )
                  ( -0.8660254  0.5000000  0.0000000 )
                  (  0.0000000  0.0000000 -1.0000000 )


      isym =  6     180 deg rotation - cryst. axis [1,1,0]       

 cryst.   s( 6) = (     0          1          0      )
                  (     1          0          0      )
                  (     0          0         -1      )

 cart.    s( 6) = ( -0.5000000  0.8660254  0.0000000 )
                  (  0.8660254  0.5000000  0.0000000 )
                  (  0.0000000  0.0000000 -1.0000000 )


      isym =  7     inversion                                    

 cryst.   s( 7) = (    -1          0          0      )
                  (     0         -1          0      )
                  (     0          0         -1      )

 cart.    s( 7) = ( -1.0000000  0.0000000  0.0000000 )
                  (  0.0000000 -1.0000000  0.0000000 )
                  (  0.0000000  0.0000000 -1.0000000 )


      isym =  8     inv. 180 deg rotation - cart. axis [1,0,0]   

 cryst.   s( 8) = (    -1          0          0      )
                  (     1          1          0      )
                  (     0          0          1      )

 cart.    s( 8) = ( -1.0000000 -0.0000000  0.0000000 )
                  (  0.0000000  1.0000000  0.0000000 )
                  (  0.0000000  0.0000000  1.0000000 )


      isym =  9     inv. 120 deg rotation - cryst. axis [0,0,1]  

 cryst.   s( 9) = (     0         -1          0      )
                  (     1          1          0      )
                  (     0          0         -1      )

 cart.    s( 9) = (  0.5000000  0.8660254  0.0000000 )
                  ( -0.8660254  0.5000000  0.0000000 )
                  (  0.0000000  0.0000000 -1.0000000 )


      isym = 10     inv. 120 deg rotation - cryst. axis [0,0,-1] 

 cryst.   s(10) = (     1          1          0      )
                  (    -1          0          0      )
                  (     0          0         -1      )

 cart.    s(10) = (  0.5000000 -0.8660254  0.0000000 )
                  (  0.8660254  0.5000000  0.0000000 )
                  (  0.0000000  0.0000000 -1.0000000 )


      isym = 11     inv. 180 deg rotation - cryst. axis [0,1,0]  

 cryst.   s(11) = (     1          1          0      )
                  (     0         -1          0      )
                  (     0          0          1      )

 cart.    s(11) = (  0.5000000  0.8660254  0.0000000 )
                  (  0.8660254 -0.5000000  0.0000000 )
                  (  0.0000000  0.0000000  1.0000000 )


      isym = 12     inv. 180 deg rotation - cryst. axis [1,1,0]  

 cryst.   s(12) = (     0         -1          0      )
                  (    -1          0          0      )
                  (     0          0          1      )

 cart.    s(12) = (  0.5000000 -0.8660254  0.0000000 )
                  ( -0.8660254 -0.5000000  0.0000000 )
                  (  0.0000000  0.0000000  1.0000000 )


   Cartesian axes

     site n.     atom                  positions (alat units)
         1           I   tau(   1) = (   0.5000000   0.2886751   2.9770045  )
         2           Pb  tau(   2) = (   0.5000000   0.8660254   2.5729426  )
         3           I   tau(   3) = (  -0.0000000   0.5773503   2.1688808  )

   Crystallographic axes

     site n.     atom                  positions (cryst. coord.)
         1           I   tau(   1) = (  0.6666667  0.3333333  0.5785213  )
         2           Pb  tau(   2) = (  1.0000000  1.0000000  0.5000000  )
         3           I   tau(   3) = (  0.3333333  0.6666667  0.4214787  )

     number of k points=   132  Marzari-Vanderbilt smearing, width (Ry)=  0.0200
                       cart. coord. in units 2pi/alat
        k(    1) = (   0.0000000   0.0000000   0.0000000), wk =   0.0151515
        k(    2) = (   0.0102041   0.0058913   0.0000000), wk =   0.0151515
        k(    3) = (   0.0204082   0.0117827   0.0000000), wk =   0.0151515
        k(    4) = (   0.0306122   0.0176740   0.0000000), wk =   0.0151515
        k(    5) = (   0.0408163   0.0235653   0.0000000), wk =   0.0151515
        k(    6) = (   0.0510204   0.0294566   0.0000000), wk =   0.0151515
        k(    7) = (   0.0612245   0.0353480   0.0000000), wk =   0.0151515
        k(    8) = (   0.0714286   0.0412393   0.0000000), wk =   0.0151515
        k(    9) = (   0.0816327   0.0471306   0.0000000), wk =   0.0151515
        k(   10) = (   0.0918367   0.0530220   0.0000000), wk =   0.0151515
        k(   11) = (   0.1020408   0.0589133   0.0000000), wk =   0.0151515
        k(   12) = (   0.1122449   0.0648046   0.0000000), wk =   0.0151515
        k(   13) = (   0.1224490   0.0706960   0.0000000), wk =   0.0151515
        k(   14) = (   0.1326531   0.0765873   0.0000000), wk =   0.0151515
        k(   15) = (   0.1428571   0.0824786   0.0000000), wk =   0.0151515
        k(   16) = (   0.1530612   0.0883699   0.0000000), wk =   0.0151515
        k(   17) = (   0.1632653   0.0942613   0.0000000), wk =   0.0151515
        k(   18) = (   0.1734694   0.1001526   0.0000000), wk =   0.0151515
        k(   19) = (   0.1836735   0.1060439   0.0000000), wk =   0.0151515
        k(   20) = (   0.1938776   0.1119353   0.0000000), wk =   0.0151515
        k(   21) = (   0.2040816   0.1178266   0.0000000), wk =   0.0151515
        k(   22) = (   0.2142857   0.1237179   0.0000000), wk =   0.0151515
        k(   23) = (   0.2244898   0.1296092   0.0000000), wk =   0.0151515
        k(   24) = (   0.2346939   0.1355006   0.0000000), wk =   0.0151515
        k(   25) = (   0.2448980   0.1413919   0.0000000), wk =   0.0151515
        k(   26) = (   0.2551020   0.1472832   0.0000000), wk =   0.0151515
        k(   27) = (   0.2653061   0.1531746   0.0000000), wk =   0.0151515
        k(   28) = (   0.2755102   0.1590659   0.0000000), wk =   0.0151515
        k(   29) = (   0.2857143   0.1649572   0.0000000), wk =   0.0151515
        k(   30) = (   0.2959184   0.1708485   0.0000000), wk =   0.0151515
        k(   31) = (   0.3061224   0.1767399   0.0000000), wk =   0.0151515
        k(   32) = (   0.3163265   0.1826312   0.0000000), wk =   0.0151515
        k(   33) = (   0.3265306   0.1885225   0.0000000), wk =   0.0151515
        k(   34) = (   0.3367347   0.1944139   0.0000000), wk =   0.0151515
        k(   35) = (   0.3469388   0.2003052   0.0000000), wk =   0.0151515
        k(   36) = (   0.3571429   0.2061965   0.0000000), wk =   0.0151515
        k(   37) = (   0.3673469   0.2120879   0.0000000), wk =   0.0151515
        k(   38) = (   0.3775510   0.2179792   0.0000000), wk =   0.0151515
        k(   39) = (   0.3877551   0.2238705   0.0000000), wk =   0.0151515
        k(   40) = (   0.3979592   0.2297618   0.0000000), wk =   0.0151515
        k(   41) = (   0.4081633   0.2356532   0.0000000), wk =   0.0151515
        k(   42) = (   0.4183673   0.2415445   0.0000000), wk =   0.0151515
        k(   43) = (   0.4285714   0.2474358   0.0000000), wk =   0.0151515
        k(   44) = (   0.4387755   0.2533272   0.0000000), wk =   0.0151515
        k(   45) = (   0.4489796   0.2592185   0.0000000), wk =   0.0151515
        k(   46) = (   0.4591837   0.2651098   0.0000000), wk =   0.0151515
        k(   47) = (   0.4693878   0.2710011   0.0000000), wk =   0.0151515
        k(   48) = (   0.4795918   0.2768925   0.0000000), wk =   0.0151515
        k(   49) = (   0.4897959   0.2827838   0.0000000), wk =   0.0151515
        k(   50) = (   0.5000000   0.2886751   0.0000000), wk =   0.0151515
        k(   51) = (   0.4953704   0.2966939   0.0000000), wk =   0.0151515
        k(   52) = (   0.4907407   0.3047126   0.0000000), wk =   0.0151515
        k(   53) = (   0.4861111   0.3127314   0.0000000), wk =   0.0151515
        k(   54) = (   0.4814815   0.3207501   0.0000000), wk =   0.0151515
        k(   55) = (   0.4768519   0.3287689   0.0000000), wk =   0.0151515
        k(   56) = (   0.4722222   0.3367877   0.0000000), wk =   0.0151515
        k(   57) = (   0.4675926   0.3448064   0.0000000), wk =   0.0151515
        k(   58) = (   0.4629630   0.3528252   0.0000000), wk =   0.0151515
        k(   59) = (   0.4583333   0.3608439   0.0000000), wk =   0.0151515
        k(   60) = (   0.4537037   0.3688627   0.0000000), wk =   0.0151515
        k(   61) = (   0.4490741   0.3768814   0.0000000), wk =   0.0151515
        k(   62) = (   0.4444444   0.3849002   0.0000000), wk =   0.0151515
        k(   63) = (   0.4398148   0.3929189   0.0000000), wk =   0.0151515
        k(   64) = (   0.4351852   0.4009377   0.0000000), wk =   0.0151515
        k(   65) = (   0.4305556   0.4089564   0.0000000), wk =   0.0151515
        k(   66) = (   0.4259259   0.4169752   0.0000000), wk =   0.0151515
        k(   67) = (   0.4212963   0.4249939   0.0000000), wk =   0.0151515
        k(   68) = (   0.4166667   0.4330127   0.0000000), wk =   0.0151515
        k(   69) = (   0.4120370   0.4410315   0.0000000), wk =   0.0151515
        k(   70) = (   0.4074074   0.4490502   0.0000000), wk =   0.0151515
        k(   71) = (   0.4027778   0.4570690   0.0000000), wk =   0.0151515
        k(   72) = (   0.3981481   0.4650877   0.0000000), wk =   0.0151515
        k(   73) = (   0.3935185   0.4731065   0.0000000), wk =   0.0151515
        k(   74) = (   0.3888889   0.4811252   0.0000000), wk =   0.0151515
        k(   75) = (   0.3842593   0.4891440   0.0000000), wk =   0.0151515
        k(   76) = (   0.3796296   0.4971627   0.0000000), wk =   0.0151515
        k(   77) = (   0.3750000   0.5051815   0.0000000), wk =   0.0151515
        k(   78) = (   0.3703704   0.5132002   0.0000000), wk =   0.0151515
        k(   79) = (   0.3657407   0.5212190   0.0000000), wk =   0.0151515
        k(   80) = (   0.3611111   0.5292377   0.0000000), wk =   0.0151515
        k(   81) = (   0.3564815   0.5372565   0.0000000), wk =   0.0151515
        k(   82) = (   0.3518519   0.5452753   0.0000000), wk =   0.0151515
        k(   83) = (   0.3472222   0.5532940   0.0000000), wk =   0.0151515
        k(   84) = (   0.3425926   0.5613128   0.0000000), wk =   0.0151515
        k(   85) = (   0.3379630   0.5693315   0.0000000), wk =   0.0151515
        k(   86) = (   0.3333333   0.5773503   0.0000000), wk =   0.0151515
        k(   87) = (   0.3260870   0.5647992   0.0000000), wk =   0.0151515
        k(   88) = (   0.3188406   0.5522481   0.0000000), wk =   0.0151515
        k(   89) = (   0.3115942   0.5396970   0.0000000), wk =   0.0151515
        k(   90) = (   0.3043478   0.5271459   0.0000000), wk =   0.0151515
        k(   91) = (   0.2971014   0.5145948   0.0000000), wk =   0.0151515
        k(   92) = (   0.2898551   0.5020437   0.0000000), wk =   0.0151515
        k(   93) = (   0.2826087   0.4894926   0.0000000), wk =   0.0151515
        k(   94) = (   0.2753623   0.4769415   0.0000000), wk =   0.0151515
        k(   95) = (   0.2681159   0.4643904   0.0000000), wk =   0.0151515
        k(   96) = (   0.2608696   0.4518393   0.0000000), wk =   0.0151515
        k(   97) = (   0.2536232   0.4392882   0.0000000), wk =   0.0151515
        k(   98) = (   0.2463768   0.4267372   0.0000000), wk =   0.0151515
        k(   99) = (   0.2391304   0.4141861   0.0000000), wk =   0.0151515
        k(  100) = (   0.2318841   0.4016350   0.0000000), wk =   0.0151515
        k(  101) = (   0.2246377   0.3890839   0.0000000), wk =   0.0151515
        k(  102) = (   0.2173913   0.3765328   0.0000000), wk =   0.0151515
        k(  103) = (   0.2101449   0.3639817   0.0000000), wk =   0.0151515
        k(  104) = (   0.2028986   0.3514306   0.0000000), wk =   0.0151515
        k(  105) = (   0.1956522   0.3388795   0.0000000), wk =   0.0151515
        k(  106) = (   0.1884058   0.3263284   0.0000000), wk =   0.0151515
        k(  107) = (   0.1811594   0.3137773   0.0000000), wk =   0.0151515
        k(  108) = (   0.1739130   0.3012262   0.0000000), wk =   0.0151515
        k(  109) = (   0.1666667   0.2886751   0.0000000), wk =   0.0151515
        k(  110) = (   0.1594203   0.2761240   0.0000000), wk =   0.0151515
        k(  111) = (   0.1521739   0.2635729   0.0000000), wk =   0.0151515
        k(  112) = (   0.1449275   0.2510219   0.0000000), wk =   0.0151515
        k(  113) = (   0.1376812   0.2384708   0.0000000), wk =   0.0151515
        k(  114) = (   0.1304348   0.2259197   0.0000000), wk =   0.0151515
        k(  115) = (   0.1231884   0.2133686   0.0000000), wk =   0.0151515
        k(  116) = (   0.1159420   0.2008175   0.0000000), wk =   0.0151515
        k(  117) = (   0.1086957   0.1882664   0.0000000), wk =   0.0151515
        k(  118) = (   0.1014493   0.1757153   0.0000000), wk =   0.0151515
        k(  119) = (   0.0942029   0.1631642   0.0000000), wk =   0.0151515
        k(  120) = (   0.0869565   0.1506131   0.0000000), wk =   0.0151515
        k(  121) = (   0.0797101   0.1380620   0.0000000), wk =   0.0151515
        k(  122) = (   0.0724638   0.1255109   0.0000000), wk =   0.0151515
        k(  123) = (   0.0652174   0.1129598   0.0000000), wk =   0.0151515
        k(  124) = (   0.0579710   0.1004087   0.0000000), wk =   0.0151515
        k(  125) = (   0.0507246   0.0878576   0.0000000), wk =   0.0151515
        k(  126) = (   0.0434783   0.0753066   0.0000000), wk =   0.0151515
        k(  127) = (   0.0362319   0.0627555   0.0000000), wk =   0.0151515
        k(  128) = (   0.0289855   0.0502044   0.0000000), wk =   0.0151515
        k(  129) = (   0.0217391   0.0376533   0.0000000), wk =   0.0151515
        k(  130) = (   0.0144928   0.0251022   0.0000000), wk =   0.0151515
        k(  131) = (   0.0072464   0.0125511   0.0000000), wk =   0.0151515
        k(  132) = (   0.0000000   0.0000000   0.0000000), wk =   0.0151515

                       cryst. coord.
        k(    1) = (   0.0000000   0.0000000   0.0000000), wk =   0.0151515
        k(    2) = (   0.0102041   0.0000000   0.0000000), wk =   0.0151515
        k(    3) = (   0.0204082   0.0000000   0.0000000), wk =   0.0151515
        k(    4) = (   0.0306122   0.0000000   0.0000000), wk =   0.0151515
        k(    5) = (   0.0408163   0.0000000   0.0000000), wk =   0.0151515
        k(    6) = (   0.0510204   0.0000000   0.0000000), wk =   0.0151515
        k(    7) = (   0.0612245   0.0000000   0.0000000), wk =   0.0151515
        k(    8) = (   0.0714286  -0.0000000   0.0000000), wk =   0.0151515
        k(    9) = (   0.0816327   0.0000000   0.0000000), wk =   0.0151515
        k(   10) = (   0.0918367   0.0000000   0.0000000), wk =   0.0151515
        k(   11) = (   0.1020408   0.0000000   0.0000000), wk =   0.0151515
        k(   12) = (   0.1122449   0.0000000   0.0000000), wk =   0.0151515
        k(   13) = (   0.1224490   0.0000000   0.0000000), wk =   0.0151515
        k(   14) = (   0.1326531   0.0000000   0.0000000), wk =   0.0151515
        k(   15) = (   0.1428571   0.0000000   0.0000000), wk =   0.0151515
        k(   16) = (   0.1530612  -0.0000000   0.0000000), wk =   0.0151515
        k(   17) = (   0.1632653   0.0000000   0.0000000), wk =   0.0151515
        k(   18) = (   0.1734694   0.0000000   0.0000000), wk =   0.0151515
        k(   19) = (   0.1836735   0.0000000   0.0000000), wk =   0.0151515
        k(   20) = (   0.1938776   0.0000000   0.0000000), wk =   0.0151515
        k(   21) = (   0.2040816   0.0000000   0.0000000), wk =   0.0151515
        k(   22) = (   0.2142857   0.0000000   0.0000000), wk =   0.0151515
        k(   23) = (   0.2244898   0.0000000   0.0000000), wk =   0.0151515
        k(   24) = (   0.2346939   0.0000000   0.0000000), wk =   0.0151515
        k(   25) = (   0.2448980   0.0000000   0.0000000), wk =   0.0151515
        k(   26) = (   0.2551020   0.0000000   0.0000000), wk =   0.0151515
        k(   27) = (   0.2653061   0.0000000   0.0000000), wk =   0.0151515
        k(   28) = (   0.2755102   0.0000000   0.0000000), wk =   0.0151515
        k(   29) = (   0.2857143   0.0000000   0.0000000), wk =   0.0151515
        k(   30) = (   0.2959184   0.0000000   0.0000000), wk =   0.0151515
        k(   31) = (   0.3061224  -0.0000000   0.0000000), wk =   0.0151515
        k(   32) = (   0.3163265   0.0000000   0.0000000), wk =   0.0151515
        k(   33) = (   0.3265306   0.0000000   0.0000000), wk =   0.0151515
        k(   34) = (   0.3367347   0.0000000   0.0000000), wk =   0.0151515
        k(   35) = (   0.3469388   0.0000000   0.0000000), wk =   0.0151515
        k(   36) = (   0.3571429   0.0000000   0.0000000), wk =   0.0151515
        k(   37) = (   0.3673469   0.0000000   0.0000000), wk =   0.0151515
        k(   38) = (   0.3775510   0.0000000   0.0000000), wk =   0.0151515
        k(   39) = (   0.3877551   0.0000000   0.0000000), wk =   0.0151515
        k(   40) = (   0.3979592   0.0000000   0.0000000), wk =   0.0151515
        k(   41) = (   0.4081633   0.0000000   0.0000000), wk =   0.0151515
        k(   42) = (   0.4183673   0.0000000   0.0000000), wk =   0.0151515
        k(   43) = (   0.4285714   0.0000000   0.0000000), wk =   0.0151515
        k(   44) = (   0.4387755   0.0000000   0.0000000), wk =   0.0151515
        k(   45) = (   0.4489796   0.0000000   0.0000000), wk =   0.0151515
        k(   46) = (   0.4591837   0.0000000   0.0000000), wk =   0.0151515
        k(   47) = (   0.4693878   0.0000000   0.0000000), wk =   0.0151515
        k(   48) = (   0.4795918   0.0000000   0.0000000), wk =   0.0151515
        k(   49) = (   0.4897959   0.0000000   0.0000000), wk =   0.0151515
        k(   50) = (   0.5000000   0.0000000   0.0000000), wk =   0.0151515
        k(   51) = (   0.4953704   0.0092593   0.0000000), wk =   0.0151515
        k(   52) = (   0.4907407   0.0185185   0.0000000), wk =   0.0151515
        k(   53) = (   0.4861111   0.0277778   0.0000000), wk =   0.0151515
        k(   54) = (   0.4814815   0.0370370   0.0000000), wk =   0.0151515
        k(   55) = (   0.4768519   0.0462963   0.0000000), wk =   0.0151515
        k(   56) = (   0.4722222   0.0555556   0.0000000), wk =   0.0151515
        k(   57) = (   0.4675926   0.0648148   0.0000000), wk =   0.0151515
        k(   58) = (   0.4629630   0.0740741   0.0000000), wk =   0.0151515
        k(   59) = (   0.4583333   0.0833333   0.0000000), wk =   0.0151515
        k(   60) = (   0.4537037   0.0925926   0.0000000), wk =   0.0151515
        k(   61) = (   0.4490741   0.1018519   0.0000000), wk =   0.0151515
        k(   62) = (   0.4444444   0.1111111   0.0000000), wk =   0.0151515
        k(   63) = (   0.4398148   0.1203704   0.0000000), wk =   0.0151515
        k(   64) = (   0.4351852   0.1296296   0.0000000), wk =   0.0151515
        k(   65) = (   0.4305556   0.1388889   0.0000000), wk =   0.0151515
        k(   66) = (   0.4259259   0.1481481   0.0000000), wk =   0.0151515
        k(   67) = (   0.4212963   0.1574074   0.0000000), wk =   0.0151515
        k(   68) = (   0.4166667   0.1666667   0.0000000), wk =   0.0151515
        k(   69) = (   0.4120370   0.1759259   0.0000000), wk =   0.0151515
        k(   70) = (   0.4074074   0.1851852   0.0000000), wk =   0.0151515
        k(   71) = (   0.4027778   0.1944444   0.0000000), wk =   0.0151515
        k(   72) = (   0.3981481   0.2037037   0.0000000), wk =   0.0151515
        k(   73) = (   0.3935185   0.2129630   0.0000000), wk =   0.0151515
        k(   74) = (   0.3888889   0.2222222   0.0000000), wk =   0.0151515
        k(   75) = (   0.3842593   0.2314815   0.0000000), wk =   0.0151515
        k(   76) = (   0.3796296   0.2407407   0.0000000), wk =   0.0151515
        k(   77) = (   0.3750000   0.2500000   0.0000000), wk =   0.0151515
        k(   78) = (   0.3703704   0.2592593   0.0000000), wk =   0.0151515
        k(   79) = (   0.3657407   0.2685185   0.0000000), wk =   0.0151515
        k(   80) = (   0.3611111   0.2777778   0.0000000), wk =   0.0151515
        k(   81) = (   0.3564815   0.2870370   0.0000000), wk =   0.0151515
        k(   82) = (   0.3518519   0.2962963   0.0000000), wk =   0.0151515
        k(   83) = (   0.3472222   0.3055556   0.0000000), wk =   0.0151515
        k(   84) = (   0.3425926   0.3148148   0.0000000), wk =   0.0151515
        k(   85) = (   0.3379630   0.3240741   0.0000000), wk =   0.0151515
        k(   86) = (   0.3333333   0.3333333   0.0000000), wk =   0.0151515
        k(   87) = (   0.3260870   0.3260870   0.0000000), wk =   0.0151515
        k(   88) = (   0.3188406   0.3188406   0.0000000), wk =   0.0151515
        k(   89) = (   0.3115942   0.3115942   0.0000000), wk =   0.0151515
        k(   90) = (   0.3043478   0.3043478   0.0000000), wk =   0.0151515
        k(   91) = (   0.2971014   0.2971014   0.0000000), wk =   0.0151515
        k(   92) = (   0.2898551   0.2898551   0.0000000), wk =   0.0151515
        k(   93) = (   0.2826087   0.2826087   0.0000000), wk =   0.0151515
        k(   94) = (   0.2753623   0.2753623   0.0000000), wk =   0.0151515
        k(   95) = (   0.2681159   0.2681159   0.0000000), wk =   0.0151515
        k(   96) = (   0.2608696   0.2608696   0.0000000), wk =   0.0151515
        k(   97) = (   0.2536232   0.2536232   0.0000000), wk =   0.0151515
        k(   98) = (   0.2463768   0.2463768   0.0000000), wk =   0.0151515
        k(   99) = (   0.2391304   0.2391304   0.0000000), wk =   0.0151515
        k(  100) = (   0.2318841   0.2318841   0.0000000), wk =   0.0151515
        k(  101) = (   0.2246377   0.2246377   0.0000000), wk =   0.0151515
        k(  102) = (   0.2173913   0.2173913   0.0000000), wk =   0.0151515
        k(  103) = (   0.2101449   0.2101449   0.0000000), wk =   0.0151515
        k(  104) = (   0.2028986   0.2028986   0.0000000), wk =   0.0151515
        k(  105) = (   0.1956522   0.1956522   0.0000000), wk =   0.0151515
        k(  106) = (   0.1884058   0.1884058   0.0000000), wk =   0.0151515
        k(  107) = (   0.1811594   0.1811594   0.0000000), wk =   0.0151515
        k(  108) = (   0.1739130   0.1739130   0.0000000), wk =   0.0151515
        k(  109) = (   0.1666667   0.1666667   0.0000000), wk =   0.0151515
        k(  110) = (   0.1594203   0.1594203   0.0000000), wk =   0.0151515
        k(  111) = (   0.1521739   0.1521739   0.0000000), wk =   0.0151515
        k(  112) = (   0.1449275   0.1449275   0.0000000), wk =   0.0151515
        k(  113) = (   0.1376812   0.1376812   0.0000000), wk =   0.0151515
        k(  114) = (   0.1304348   0.1304348   0.0000000), wk =   0.0151515
        k(  115) = (   0.1231884   0.1231884   0.0000000), wk =   0.0151515
        k(  116) = (   0.1159420   0.1159420   0.0000000), wk =   0.0151515
        k(  117) = (   0.1086957   0.1086957   0.0000000), wk =   0.0151515
        k(  118) = (   0.1014493   0.1014493   0.0000000), wk =   0.0151515
        k(  119) = (   0.0942029   0.0942029   0.0000000), wk =   0.0151515
        k(  120) = (   0.0869565   0.0869565   0.0000000), wk =   0.0151515
        k(  121) = (   0.0797101   0.0797101   0.0000000), wk =   0.0151515
        k(  122) = (   0.0724638   0.0724638   0.0000000), wk =   0.0151515
        k(  123) = (   0.0652174   0.0652174   0.0000000), wk =   0.0151515
        k(  124) = (   0.0579710   0.0579710   0.0000000), wk =   0.0151515
        k(  125) = (   0.0507246   0.0507246   0.0000000), wk =   0.0151515
        k(  126) = (   0.0434783   0.0434783   0.0000000), wk =   0.0151515
        k(  127) = (   0.0362319   0.0362319   0.0000000), wk =   0.0151515
        k(  128) = (   0.0289855   0.0289855   0.0000000), wk =   0.0151515
        k(  129) = (   0.0217391   0.0217391   0.0000000), wk =   0.0151515
        k(  130) = (   0.0144928   0.0144928   0.0000000), wk =   0.0151515
        k(  131) = (   0.0072464   0.0072464   0.0000000), wk =   0.0151515
        k(  132) = (   0.0000000   0.0000000   0.0000000), wk =   0.0151515

     Dense  grid:   290999 G-vectors     FFT dimensions: (  50,  50, 270)

     Smooth grid:   103111 G-vectors     FFT dimensions: (  36,  36, 192)

     Largest allocated arrays     est. size (Mb)     dimensions
        Kohn-Sham Wavefunctions         3.55 Mb     (   12916,   18)
        NL pseudopotentials            10.64 Mb     (   12916,   54)
        Each V/rho on FFT grid         10.30 Mb     (  675000)
        Each G-vector array             2.22 Mb     (  290999)
        G-vector shells                 0.13 Mb     (   16846)
     Largest temporary arrays     est. size (Mb)     dimensions
        Each subspace H/S matrix        0.00 Mb     (      18,   18)
        Each <psi_i|beta_j> matrix      0.01 Mb     (      54,   18)

     The potential is recalculated from file :
     ./out/aiida.save/charge-density.xml


     negative rho (up, down):  3.178E-04 0.000E+00
     Starting wfc are   17 randomized atomic wfcs +    1 random wfc
     Checking if some PAW data can be deallocated... 
       node    0, deallocated PAW data for type:  2
       node    1, deallocated PAW data for type:  2
       node    2, deallocated PAW data for type:  2
       node    3, deallocated PAW data for type:  2
       node    4, deallocated PAW data for type:  2
       node    5, deallocated PAW data for type:  2
       node    6, deallocated PAW data for type:  2
       node    7, deallocated PAW data for type:  2
       node    8, deallocated PAW data for type:  2
       node    9, deallocated PAW data for type:  2
       node   10, deallocated PAW data for type:  2
       node   11, deallocated PAW data for type:  2
       node   12, deallocated PAW data for type:  2
       node   13, deallocated PAW data for type:  2
       node   14, deallocated PAW data for type:  2
       node   15, deallocated PAW data for type:  2
       node   16, deallocated PAW data for type:  2
       node   17, deallocated PAW data for type:  2
       node   18, deallocated PAW data for type:  2
       node   19, deallocated PAW data for type:  2
       node   20, deallocated PAW data for type:  2
       node   21, deallocated PAW data for type:  2
       node   44, deallocated PAW data for type:  2
       node   45, deallocated PAW data for type:  2
       node   46, deallocated PAW data for type:  2
       node   47, deallocated PAW data for type:  2
       node   48, deallocated PAW data for type:  2
       node   49, deallocated PAW data for type:  2
       node   50, deallocated PAW data for type:  2
       node   51, deallocated PAW data for type:  2
       node   52, deallocated PAW data for type:  2
       node   53, deallocated PAW data for type:  2
       node   54, deallocated PAW data for type:  2
       node   55, deallocated PAW data for type:  2
       node   56, deallocated PAW data for type:  2
       node   57, deallocated PAW data for type:  2
       node   58, deallocated PAW data for type:  2
       node   59, deallocated PAW data for type:  2
       node   60, deallocated PAW data for type:  2
       node   61, deallocated PAW data for type:  2
       node   62, deallocated PAW data for type:  2
       node   63, deallocated PAW data for type:  2
       node   64, deallocated PAW data for type:  2
       node   65, deallocated PAW data for type:  2

     Band Structure Calculation
     CG style diagonalization

     Computing kpt #:     1
     total cpu time spent up to now is       40.3 secs

     Computing kpt #:     2
     total cpu time spent up to now is       69.4 secs

     ethr =  1.07E-11,  avg # of iterations = 64.9

     total cpu time spent up to now is       69.4 secs

     End of band structure calculation

          k = 0.0000 0.0000 0.0000 ( 12913 PWs)   bands (ev):

   -22.3547 -22.3547 -22.3469 -22.3403 -22.3403 -18.0673 -17.5902 -12.9893
    -7.3661  -7.1694  -7.1694  -6.9451  -6.9451  -6.8112  -3.9125  -2.9842
    -2.9842  -0.6757

          k = 0.0102 0.0059 0.0000 ( 12913 PWs)   bands (ev):

   -22.3548 -22.3547 -22.3469 -22.3403 -22.3403 -18.0669 -17.5900 -12.9897
    -7.3660  -7.1775  -7.1711  -6.9472  -6.9445  -6.8052  -3.9091  -2.9853
    -2.9832  -0.6732

          k = 0.0204 0.0118 0.0000 ( 12901 PWs)   bands (ev):

   -22.3548 -22.3547 -22.3468 -22.3403 -22.3403 -18.0657 -17.5893 -12.9910
    -7.3656  -7.2002  -7.1762  -6.9541  -6.9427  -6.7883  -3.8987  -2.9884
    -2.9801  -0.6656

          k = 0.0306 0.0177 0.0000 ( 12889 PWs)   bands (ev):

   -22.3550 -22.3546 -22.3468 -22.3404 -22.3403 -18.0637 -17.5882 -12.9930
    -7.3650  -7.2338  -7.1843  -6.9662  -6.9401  -6.7635  -3.8817  -2.9933
    -2.9750  -0.6531

          k = 0.0408 0.0236 0.0000 ( 12877 PWs)   bands (ev):

   -22.3551 -22.3545 -22.3467 -22.3404 -22.3403 -18.0608 -17.5867 -12.9959
    -7.3642  -7.2748  -7.1953  -6.9836  -6.9368  -6.7340  -3.8586  -2.9997
    -2.9680  -0.6361

          k = 0.0510 0.0295 0.0000 ( 12871 PWs)   bands (ev):

   -22.3554 -22.3544 -22.3466 -22.3405 -22.3402 -18.0572 -17.5847 -12.9996
    -7.3633  -7.3207  -7.2088  -7.0056  -6.9331  -6.7024  -3.8298  -3.0069
    -2.9590  -0.6149

          k = 0.0612 0.0353 0.0000 ( 12867 PWs)   bands (ev):

   -22.3557 -22.3543 -22.3465 -22.3406 -22.3402 -18.0527 -17.5822 -13.0041
    -7.3711  -7.3614  -7.2245  -7.0317  -6.9293  -6.6703  -3.7962  -3.0142
    -2.9482  -0.5901

          k = 0.0714 0.0412 0.0000 ( 12879 PWs)   bands (ev):

   -22.3560 -22.3541 -22.3464 -22.3407 -22.3402 -18.0475 -17.5794 -13.0095
    -7.4223  -7.3612  -7.2420  -7.0612  -6.9256  -6.6389  -3.7587  -3.0210
    -2.9357  -0.5621

          k = 0.0816 0.0471 0.0000 ( 12863 PWs)   bands (ev):

   -22.3564 -22.3539 -22.3462 -22.3408 -22.3401 -18.0415 -17.5762 -13.0156
    -7.4759  -7.3607  -7.2610  -7.0932  -6.9222  -6.6091  -3.7182  -3.0262
    -2.9215  -0.5316

          k = 0.0918 0.0530 0.0000 ( 12857 PWs)   bands (ev):

   -22.3569 -22.3537 -22.3461 -22.3409 -22.3401 -18.0347 -17.5726 -13.0226
    -7.5308  -7.3610  -7.2815  -7.1268  -6.9193  -6.5814  -3.6760  -3.0288
    -2.9059  -0.4992

          k = 0.1020 0.0589 0.0000 ( 12843 PWs)   bands (ev):

   -22.3573 -22.3535 -22.3459 -22.3410 -22.3400 -18.0272 -17.5686 -13.0304
    -7.5866  -7.3628  -7.3031  -7.1608  -6.9168  -6.5563  -3.6333  -3.0276
    -2.8889  -0.4657

          k = 0.1122 0.0648 0.0000 ( 12827 PWs)   bands (ev):

   -22.3579 -22.3533 -22.3457 -22.3411 -22.3399 -18.0190 -17.5642 -13.0390
    -7.6431  -7.3672  -7.3256  -7.1934  -6.9150  -6.5340  -3.5916  -3.0216
    -2.8706  -0.4325

          k = 0.1224 0.0707 0.0000 ( 12821 PWs)   bands (ev):

   -22.3585 -22.3530 -22.3455 -22.3413 -22.3398 -18.0100 -17.5596 -13.0483
    -7.7000  -7.3761  -7.3490  -7.2223  -6.9138  -6.5149  -3.5522  -3.0095
    -2.8513  -0.4022

          k = 0.1327 0.0766 0.0000 ( 12827 PWs)   bands (ev):

   -22.3592 -22.3528 -22.3453 -22.3414 -22.3397 -18.0004 -17.5546 -13.0585
    -7.7572  -7.3919  -7.3731  -7.2448  -6.9132  -6.4990  -3.5164  -2.9904
    -2.8311  -0.3780

          k = 0.1429 0.0825 0.0000 ( 12831 PWs)   bands (ev):

   -22.3599 -22.3526 -22.3451 -22.3415 -22.3396 -17.9901 -17.5494 -13.0693
    -7.8146  -7.4155  -7.3977  -7.2595  -6.9133  -6.4866  -3.4850  -2.9639
    -2.8101  -0.3602

          k = 0.1531 0.0884 0.0000 ( 12831 PWs)   bands (ev):

   -22.3607 -22.3523 -22.3450 -22.3415 -22.3395 -17.9791 -17.5439 -13.0810
    -7.8719  -7.4457  -7.4228  -7.2671  -6.9140  -6.4777  -3.4581  -2.9303
    -2.7885  -0.3459

          k = 0.1633 0.0943 0.0000 ( 12831 PWs)   bands (ev):

   -22.3614 -22.3521 -22.3448 -22.3416 -22.3393 -17.9675 -17.5381 -13.0933
    -7.9291  -7.4802  -7.4482  -7.2699  -6.9154  -6.4723  -3.4355  -2.8902
    -2.7665  -0.3327

          k = 0.1735 0.1002 0.0000 ( 12841 PWs)   bands (ev):

   -22.3623 -22.3518 -22.3447 -22.3416 -22.3392 -17.9554 -17.5322 -13.1064
    -7.9860  -7.5169  -7.4738  -7.2696  -6.9173  -6.4704  -3.4163  -2.8450
    -2.7442  -0.3196

          k = 0.1837 0.1060 0.0000 ( 12839 PWs)   bands (ev):

   -22.3632 -22.3516 -22.3446 -22.3415 -22.3390 -17.9427 -17.5261 -13.1201
    -8.0426  -7.5544  -7.4995  -7.2672  -6.9198  -6.4720  -3.3997  -2.7962
    -2.7217  -0.3062

          k = 0.1939 0.1119 0.0000 ( 12841 PWs)   bands (ev):

   -22.3640 -22.3513 -22.3445 -22.3414 -22.3388 -17.9294 -17.5199 -13.1344
    -8.0986  -7.5918  -7.5252  -7.2636  -6.9228  -6.4768  -3.3848  -2.7451
    -2.6993  -0.2924

          k = 0.2041 0.1178 0.0000 ( 12843 PWs)   bands (ev):

   -22.3650 -22.3511 -22.3445 -22.3413 -22.3385 -17.9157 -17.5136 -13.1494
    -8.1540  -7.6287  -7.5509  -7.2592  -6.9262  -6.4847  -3.3711  -2.6931
    -2.6771  -0.2780

          k = 0.2143 0.1237 0.0000 ( 12853 PWs)   bands (ev):

   -22.3659 -22.3509 -22.3446 -22.3411 -22.3383 -17.9015 -17.5073 -13.1648
    -8.2087  -7.6644  -7.5764  -7.2542  -6.9301  -6.4956  -3.3579  -2.6552
    -2.6412  -0.2635

          k = 0.2245 0.1296 0.0000 ( 12859 PWs)   bands (ev):

   -22.3669 -22.3507 -22.3447 -22.3408 -22.3380 -17.8869 -17.5008 -13.1808
    -8.2625  -7.6989  -7.6017  -7.2487  -6.9343  -6.5093  -3.3449  -2.6336
    -2.5905  -0.2492

          k = 0.2347 0.1355 0.0000 ( 12871 PWs)   bands (ev):

   -22.3679 -22.3506 -22.3447 -22.3406 -22.3378 -17.8719 -17.4945 -13.1973
    -8.3154  -7.7320  -7.6267  -7.2430  -6.9389  -6.5253  -3.3320  -2.6126
    -2.5416  -0.2364

          k = 0.2449 0.1414 0.0000 ( 12859 PWs)   bands (ev):

   -22.3689 -22.3504 -22.3449 -22.3403 -22.3374 -17.8565 -17.4881 -13.2141
    -8.3672  -7.7633  -7.6513  -7.2372  -6.9437  -6.5436  -3.3192  -2.5923
    -2.4952  -0.2268

          k = 0.2551 0.1473 0.0000 ( 12867 PWs)   bands (ev):

   -22.3698 -22.3503 -22.3450 -22.3400 -22.3371 -17.8409 -17.4819 -13.2312
    -8.4179  -7.7930  -7.6754  -7.2312  -6.9488  -6.5639  -3.3063  -2.5726
    -2.4518  -0.2230

          k = 0.2653 0.1532 0.0000 ( 12857 PWs)   bands (ev):

   -22.3708 -22.3501 -22.3451 -22.3396 -22.3368 -17.8251 -17.4757 -13.2486
    -8.4672  -7.8208  -7.6990  -7.2253  -6.9541  -6.5858  -3.2935  -2.5538
    -2.4116  -0.2270

          k = 0.2755 0.1591 0.0000 ( 12873 PWs)   bands (ev):

   -22.3718 -22.3500 -22.3452 -22.3393 -22.3365 -17.8091 -17.4698 -13.2662
    -8.5152  -7.8468  -7.7220  -7.2194  -6.9595  -6.6091  -3.2808  -2.5358
    -2.3749  -0.2391

          k = 0.2857 0.1650 0.0000 ( 12877 PWs)   bands (ev):

   -22.3728 -22.3499 -22.3454 -22.3389 -22.3361 -17.7929 -17.4640 -13.2839
    -8.5617  -7.8709  -7.7444  -7.2137  -6.9650  -6.6334  -3.2684  -2.5186
    -2.3418  -0.2575

          k = 0.2959 0.1708 0.0000 ( 12881 PWs)   bands (ev):

   -22.3738 -22.3498 -22.3455 -22.3386 -22.3357 -17.7767 -17.4585 -13.3016
    -8.6067  -7.8932  -7.7661  -7.2082  -6.9705  -6.6586  -3.2563  -2.5025
    -2.3124  -0.2801

          k = 0.3061 0.1767 0.0000 ( 12877 PWs)   bands (ev):

   -22.3747 -22.3498 -22.3457 -22.3383 -22.3354 -17.7604 -17.4532 -13.3193
    -8.6500  -7.9136  -7.7871  -7.2030  -6.9760  -6.6842  -3.2447  -2.4872
    -2.2864  -0.3051

          k = 0.3163 0.1826 0.0000 ( 12883 PWs)   bands (ev):

   -22.3757 -22.3497 -22.3458 -22.3379 -22.3350 -17.7442 -17.4483 -13.3368
    -8.6915  -7.9321  -7.8072  -7.1982  -6.9816  -6.7101  -3.2336  -2.4730
    -2.2638  -0.3311

          k = 0.3265 0.1885 0.0000 ( 12879 PWs)   bands (ev):

   -22.3766 -22.3496 -22.3460 -22.3376 -22.3346 -17.7280 -17.4437 -13.3541
    -8.7313  -7.9489  -7.8266  -7.1937  -6.9870  -6.7359  -3.2231  -2.4597
    -2.2442  -0.3574

          k = 0.3367 0.1944 0.0000 ( 12883 PWs)   bands (ev):

   -22.3774 -22.3496 -22.3461 -22.3373 -22.3342 -17.7120 -17.4395 -13.3710
    -8.7691  -7.9640  -7.8450  -7.1898  -6.9923  -6.7613  -3.2134  -2.4474
    -2.2276  -0.3834

          k = 0.3469 0.2003 0.0000 ( 12867 PWs)   bands (ev):

   -22.3783 -22.3496 -22.3462 -22.3370 -22.3339 -17.6963 -17.4357 -13.3876
    -8.8050  -7.9773  -7.8625  -7.1864  -6.9975  -6.7861  -3.2044  -2.4360
    -2.2135  -0.4088

          k = 0.3571 0.2062 0.0000 ( 12876 PWs)   bands (ev):

   -22.3791 -22.3495 -22.3463 -22.3367 -22.3335 -17.6808 -17.4324 -13.4036
    -8.8389  -7.9891  -7.8791  -7.1837  -7.0025  -6.8101  -3.1961  -2.4256
    -2.2018  -0.4334

          k = 0.3673 0.2121 0.0000 ( 12868 PWs)   bands (ev):

   -22.3798 -22.3495 -22.3465 -22.3364 -22.3332 -17.6657 -17.4295 -13.4190
    -8.8708  -7.9994  -7.8946  -7.1818  -7.0073  -6.8328  -3.1887  -2.4161
    -2.1920  -0.4569

          k = 0.3776 0.2180 0.0000 ( 12876 PWs)   bands (ev):

   -22.3806 -22.3495 -22.3466 -22.3362 -22.3328 -17.6511 -17.4271 -13.4337
    -8.9004  -8.0083  -7.9091  -7.1806  -7.0119  -6.8542  -3.1820  -2.4075
    -2.1840  -0.4791

          k = 0.3878 0.2239 0.0000 ( 12882 PWs)   bands (ev):

   -22.3812 -22.3495 -22.3467 -22.3359 -22.3326 -17.6369 -17.4251 -13.4476
    -8.9279  -8.0159  -7.9226  -7.1802  -7.0162  -6.8740  -3.1761  -2.3997
    -2.1774  -0.5000

          k = 0.3980 0.2298 0.0000 ( 12894 PWs)   bands (ev):

   -22.3819 -22.3495 -22.3468 -22.3357 -22.3323 -17.6234 -17.4237 -13.4607
    -8.9532  -8.0222  -7.9350  -7.1807  -7.0202  -6.8919  -3.1709  -2.3928
    -2.1722  -0.5195

          k = 0.4082 0.2357 0.0000 ( 12898 PWs)   bands (ev):

   -22.3824 -22.3495 -22.3469 -22.3355 -22.3320 -17.6106 -17.4227 -13.4727
    -8.9762  -8.0275  -7.9462  -7.1820  -7.0239  -6.9079  -3.1665  -2.3866
    -2.1679  -0.5374

          k = 0.4184 0.2415 0.0000 ( 12896 PWs)   bands (ev):

   -22.3830 -22.3495 -22.3470 -22.3353 -22.3318 -17.5985 -17.4221 -13.4838
    -8.9968  -8.0318  -7.9564  -7.1841  -7.0272  -6.9219  -3.1626  -2.3812
    -2.1645  -0.5537

          k = 0.4286 0.2474 0.0000 ( 12898 PWs)   bands (ev):

   -22.3834 -22.3495 -22.3470 -22.3351 -22.3315 -17.5874 -17.4220 -13.4937
    -9.0152  -8.0353  -7.9654  -7.1867  -7.0302  -6.9338  -3.1594  -2.3765
    -2.1619  -0.5683

          k = 0.4388 0.2533 0.0000 ( 12916 PWs)   bands (ev):

   -22.3839 -22.3495 -22.3471 -22.3350 -22.3314 -17.5773 -17.4222 -13.5024
    -9.0311  -8.0380  -7.9732  -7.1897  -7.0329  -6.9437  -3.1567  -2.3725
    -2.1598  -0.5811

          k = 0.4490 0.2592 0.0000 ( 12912 PWs)   bands (ev):

   -22.3842 -22.3495 -22.3471 -22.3348 -22.3312 -17.5683 -17.4227 -13.5099
    -9.0446  -8.0401  -7.9799  -7.1928  -7.0351  -6.9518  -3.1546  -2.3691
    -2.1582  -0.5920

          k = 0.4592 0.2651 0.0000 ( 12902 PWs)   bands (ev):

   -22.3845 -22.3495 -22.3472 -22.3347 -22.3311 -17.5606 -17.4233 -13.5161
    -9.0557  -8.0417  -7.9853  -7.1958  -7.0370  -6.9581  -3.1529  -2.3664
    -2.1570  -0.6010

          k = 0.4694 0.2710 0.0000 ( 12902 PWs)   bands (ev):

   -22.3847 -22.3495 -22.3472 -22.3346 -22.3310 -17.5545 -17.4240 -13.5210
    -9.0644  -8.0428  -7.9896  -7.1985  -7.0384  -6.9628  -3.1516  -2.3644
    -2.1561  -0.6081

          k = 0.4796 0.2769 0.0000 ( 12910 PWs)   bands (ev):

   -22.3849 -22.3495 -22.3472 -22.3346 -22.3309 -17.5499 -17.4246 -13.5245
    -9.0706  -8.0435  -7.9926  -7.2006  -7.0395  -6.9661  -3.1507  -2.3629
    -2.1555  -0.6132

          k = 0.4898 0.2828 0.0000 ( 12908 PWs)   bands (ev):

   -22.3849 -22.3495 -22.3473 -22.3345 -22.3308 -17.5471 -17.4251 -13.5266
    -9.0743  -8.0439  -7.9944  -7.2019  -7.0401  -6.9680  -3.1502  -2.3620
    -2.1552  -0.6162

          k = 0.5000 0.2887 0.0000 ( 12888 PWs)   bands (ev):

   -22.3850 -22.3495 -22.3473 -22.3345 -22.3308 -17.5462 -17.4252 -13.5273
    -9.0755  -8.0441  -7.9950  -7.2023  -7.0403  -6.9686  -3.1500  -2.3617
    -2.1551  -0.6172

          k = 0.4954 0.2967 0.0000 ( 12892 PWs)   bands (ev):

   -22.3850 -22.3495 -22.3472 -22.3345 -22.3308 -17.5460 -17.4252 -13.5274
    -9.0751  -8.0443  -7.9971  -7.2023  -7.0413  -6.9668  -3.1481  -2.3624
    -2.1550  -0.6158

          k = 0.4907 0.3047 0.0000 ( 12884 PWs)   bands (ev):

   -22.3849 -22.3496 -22.3472 -22.3345 -22.3308 -17.5457 -17.4251 -13.5277
    -9.0740  -8.0450  -8.0033  -7.2020  -7.0443  -6.9615  -3.1426  -2.3645
    -2.1547  -0.6116

          k = 0.4861 0.3127 0.0000 ( 12888 PWs)   bands (ev):

   -22.3848 -22.3497 -22.3472 -22.3345 -22.3309 -17.5450 -17.4249 -13.5282
    -9.0721  -8.0461  -8.0134  -7.2016  -7.0493  -6.9529  -3.1335  -2.3679
    -2.1542  -0.6046

          k = 0.4815 0.3208 0.0000 ( 12868 PWs)   bands (ev):

   -22.3847 -22.3498 -22.3471 -22.3345 -22.3309 -17.5442 -17.4246 -13.5288
    -9.0693  -8.0478  -8.0270  -7.2011  -7.0561  -6.9413  -3.1209  -2.3726
    -2.1535  -0.5948

          k = 0.4769 0.3288 0.0000 ( 12874 PWs)   bands (ev):

   -22.3845 -22.3500 -22.3470 -22.3346 -22.3310 -17.5431 -17.4243 -13.5297
    -9.0659  -8.0499  -8.0440  -7.2004  -7.0646  -6.9269  -3.1048  -2.3785
    -2.1526  -0.5822

          k = 0.4722 0.3368 0.0000 ( 12866 PWs)   bands (ev):

   -22.3843 -22.3502 -22.3469 -22.3346 -22.3311 -17.5417 -17.4239 -13.5307
    -9.0616  -8.0638  -8.0526  -7.1996  -7.0747  -6.9103  -3.0856  -2.3855
    -2.1514  -0.5668

          k = 0.4676 0.3448 0.0000 ( 12874 PWs)   bands (ev):

   -22.3841 -22.3504 -22.3468 -22.3346 -22.3312 -17.5402 -17.4234 -13.5319
    -9.0566  -8.0860  -8.0560  -7.1987  -7.0861  -6.8919  -3.0635  -2.3934
    -2.1501  -0.5486

          k = 0.4630 0.3528 0.0000 ( 12874 PWs)   bands (ev):

   -22.3838 -22.3507 -22.3466 -22.3346 -22.3313 -17.5384 -17.4229 -13.5333
    -9.0509  -8.1103  -8.0600  -7.1978  -7.0988  -6.8720  -3.0386  -2.4020
    -2.1484  -0.5275

          k = 0.4583 0.3608 0.0000 ( 12878 PWs)   bands (ev):

   -22.3836 -22.3511 -22.3465 -22.3347 -22.3315 -17.5363 -17.4224 -13.5348
    -9.0444  -8.1362  -8.0648  -7.1967  -7.1124  -6.8512  -3.0112  -2.4113
    -2.1466  -0.5037

          k = 0.4537 0.3689 0.0000 ( 12882 PWs)   bands (ev):

   -22.3832 -22.3514 -22.3463 -22.3347 -22.3316 -17.5341 -17.4218 -13.5365
    -9.0371  -8.1634  -8.0704  -7.1957  -7.1267  -6.8297  -2.9816  -2.4211
    -2.1444  -0.4771

          k = 0.4491 0.3769 0.0000 ( 12878 PWs)   bands (ev):

   -22.3829 -22.3518 -22.3461 -22.3347 -22.3318 -17.5316 -17.4212 -13.5384
    -9.0291  -8.1915  -8.0768  -7.1946  -7.1416  -6.8079  -2.9503  -2.4311
    -2.1419  -0.4476

          k = 0.4444 0.3849 0.0000 ( 12876 PWs)   bands (ev):

   -22.3825 -22.3523 -22.3459 -22.3348 -22.3319 -17.5290 -17.4205 -13.5404
    -9.0204  -8.2202  -8.0842  -7.1934  -7.1566  -6.7862  -2.9174  -2.4413
    -2.1390  -0.4154

          k = 0.4398 0.3929 0.0000 ( 12876 PWs)   bands (ev):

   -22.3821 -22.3527 -22.3457 -22.3348 -22.3321 -17.5261 -17.4199 -13.5425
    -9.0110  -8.2493  -8.0927  -7.1923  -7.1716  -6.7648  -2.8834  -2.4514
    -2.1358  -0.3804

          k = 0.4352 0.4009 0.0000 ( 12872 PWs)   bands (ev):

   -22.3816 -22.3532 -22.3454 -22.3349 -22.3323 -17.5231 -17.4192 -13.5447
    -9.0009  -8.2785  -8.1022  -7.1912  -7.1863  -6.7439  -2.8486  -2.4613
    -2.1321  -0.3426

          k = 0.4306 0.4090 0.0000 ( 12876 PWs)   bands (ev):

   -22.3812 -22.3538 -22.3452 -22.3349 -22.3325 -17.5199 -17.4186 -13.5471
    -8.9900  -8.3076  -8.1129  -7.2005  -7.1902  -6.7239  -2.8135  -2.4709
    -2.1279  -0.3020

          k = 0.4259 0.4170 0.0000 ( 12872 PWs)   bands (ev):

   -22.3807 -22.3543 -22.3449 -22.3350 -22.3327 -17.5166 -17.4180 -13.5496
    -8.9785  -8.3364  -8.1247  -7.2140  -7.1892  -6.7047  -2.7785  -2.4800
    -2.1232  -0.2587

          k = 0.4213 0.4250 0.0000 ( 12878 PWs)   bands (ev):

   -22.3802 -22.3549 -22.3446 -22.3350 -22.3330 -17.5131 -17.4174 -13.5522
    -8.9664  -8.3648  -8.1378  -7.2267  -7.1884  -6.6867  -2.7439  -2.4885
    -2.1178  -0.2127

          k = 0.4167 0.4330 0.0000 ( 12871 PWs)   bands (ev):

   -22.3797 -22.3555 -22.3443 -22.3351 -22.3332 -17.5094 -17.4169 -13.5548
    -8.9536  -8.3925  -8.1520  -7.2382  -7.1877  -6.6698  -2.7103  -2.4963
    -2.1116  -0.1640

          k = 0.4120 0.4410 0.0000 ( 12879 PWs)   bands (ev):

   -22.3791 -22.3561 -22.3440 -22.3351 -22.3334 -17.5057 -17.4165 -13.5575
    -8.9402  -8.4195  -8.1674  -7.2486  -7.1871  -6.6542  -2.6779  -2.5033
    -2.1048  -0.1127

          k = 0.4074 0.4491 0.0000 ( 12885 PWs)   bands (ev):

   -22.3785 -22.3568 -22.3437 -22.3352 -22.3337 -17.5018 -17.4162 -13.5602
    -8.9262  -8.4456  -8.1839  -7.2577  -7.1868  -6.6399  -2.6473  -2.5094
    -2.0970  -0.0589

          k = 0.4028 0.4571 0.0000 ( 12881 PWs)   bands (ev):

   -22.3779 -22.3574 -22.3434 -22.3353 -22.3339 -17.4978 -17.4159 -13.5630
    -8.9116  -8.4708  -8.2014  -7.2654  -7.1867  -6.6270  -2.6188  -2.5146
    -2.0885  -0.0027

          k = 0.3981 0.4651 0.0000 ( 12881 PWs)   bands (ev):

   -22.3773 -22.3581 -22.3430 -22.3354 -22.3342 -17.4938 -17.4158 -13.5657
    -8.8965  -8.4949  -8.2199  -7.2718  -7.1869  -6.6155  -2.5926  -2.5188
    -2.0790   0.0559

          k = 0.3935 0.4731 0.0000 ( 12881 PWs)   bands (ev):

   -22.3767 -22.3588 -22.3427 -22.3354 -22.3344 -17.4896 -17.4159 -13.5685
    -8.8809  -8.5179  -8.2391  -7.2767  -7.1874  -6.6053  -2.5690  -2.5221
    -2.0688   0.1165

          k = 0.3889 0.4811 0.0000 ( 12883 PWs)   bands (ev):

   -22.3761 -22.3595 -22.3423 -22.3355 -22.3347 -17.4855 -17.4160 -13.5712
    -8.8649  -8.5396  -8.2590  -7.2803  -7.1883  -6.5965  -2.5483  -2.5244
    -2.0579   0.1791

          k = 0.3843 0.4891 0.0000 ( 12887 PWs)   bands (ev):

   -22.3755 -22.3603 -22.3419 -22.3356 -22.3350 -17.4812 -17.4164 -13.5738
    -8.8486  -8.5601  -8.2793  -7.2825  -7.1895  -6.5889  -2.5304  -2.5257
    -2.0465   0.2434

          k = 0.3796 0.4972 0.0000 ( 12881 PWs)   bands (ev):

   -22.3748 -22.3610 -22.3415 -22.3357 -22.3352 -17.4770 -17.4169 -13.5763
    -8.8319  -8.5794  -8.2998  -7.2834  -7.1912  -6.5825  -2.5260  -2.5153
    -2.0349   0.3090

          k = 0.3750 0.5052 0.0000 ( 12881 PWs)   bands (ev):

   -22.3741 -22.3617 -22.3412 -22.3358 -22.3355 -17.4728 -17.4177 -13.5788
    -8.8150  -8.5972  -8.3204  -7.2831  -7.1934  -6.5772  -2.5254  -2.5031
    -2.0232   0.3754

          k = 0.3704 0.5132 0.0000 ( 12879 PWs)   bands (ev):

   -22.3735 -22.3624 -22.3408 -22.3359 -22.3358 -17.4685 -17.4187 -13.5811
    -8.7980  -8.6137  -8.3407  -7.2817  -7.1961  -6.5730  -2.5240  -2.4936
    -2.0119   0.4420

          k = 0.3657 0.5212 0.0000 ( 12889 PWs)   bands (ev):

   -22.3728 -22.3632 -22.3404 -22.3360 -22.3360 -17.4643 -17.4199 -13.5832
    -8.7812  -8.6287  -8.3605  -7.2792  -7.1994  -6.5696  -2.5218  -2.4865
    -2.0012   0.5080

          k = 0.3611 0.5292 0.0000 ( 12887 PWs)   bands (ev):

   -22.3721 -22.3639 -22.3400 -22.3363 -22.3361 -17.4601 -17.4214 -13.5851
    -8.7646  -8.6423  -8.3794  -7.2757  -7.2032  -6.5671  -2.5188  -2.4817
    -1.9913   0.5722

          k = 0.3565 0.5373 0.0000 ( 12887 PWs)   bands (ev):

   -22.3715 -22.3646 -22.3396 -22.3366 -22.3361 -17.4560 -17.4232 -13.5868
    -8.7486  -8.6545  -8.3970  -7.2713  -7.2076  -6.5652  -2.5152  -2.4791
    -1.9826   0.6327

          k = 0.3519 0.5453 0.0000 ( 12891 PWs)   bands (ev):

   -22.3708 -22.3654 -22.3393 -22.3368 -22.3362 -17.4519 -17.4252 -13.5883
    -8.7336  -8.6652  -8.4128  -7.2661  -7.2127  -6.5640  -2.5110  -2.4783
    -1.9752   0.6873

          k = 0.3472 0.5533 0.0000 ( 12897 PWs)   bands (ev):

   -22.3701 -22.3661 -22.3389 -22.3371 -22.3363 -17.4479 -17.4276 -13.5894
    -8.7200  -8.6745  -8.4263  -7.2602  -7.2183  -6.5631  -2.5064  -2.4792
    -1.9693   0.7326

          k = 0.3426 0.5613 0.0000 ( 12891 PWs)   bands (ev):

   -22.3695 -22.3668 -22.3385 -22.3374 -22.3364 -17.4441 -17.4303 -13.5903
    -8.7084  -8.6823  -8.4367  -7.2536  -7.2246  -6.5627  -2.5013  -2.4816
    -1.9651   0.7654

          k = 0.3380 0.5693 0.0000 ( 12895 PWs)   bands (ev):

   -22.3688 -22.3675 -22.3382 -22.3376 -22.3365 -17.4403 -17.4333 -13.5909
    -8.6994  -8.6886  -8.4434  -7.2465  -7.2315  -6.5625  -2.4960  -2.4855
    -1.9625   0.7840

          k = 0.3333 0.5774 0.0000 ( 12903 PWs)   bands (ev):

   -22.3681 -22.3681 -22.3379 -22.3379 -22.3365 -17.4367 -17.4367 -13.5911
    -8.6935  -8.6935  -8.4457  -7.2390  -7.2390  -6.5624  -2.4905  -2.4905
    -1.9617   0.7896

          k = 0.3261 0.5648 0.0000 ( 12897 PWs)   bands (ev):

   -22.3691 -22.3671 -22.3383 -22.3376 -22.3364 -17.4427 -17.4313 -13.5906
    -8.6984  -8.6911  -8.4399  -7.2518  -7.2264  -6.5625  -2.5005  -2.4817
    -1.9637   0.7796

          k = 0.3188 0.5522 0.0000 ( 12905 PWs)   bands (ev):

   -22.3701 -22.3661 -22.3387 -22.3376 -22.3361 -17.4496 -17.4263 -13.5891
    -8.6998  -8.6958  -8.4236  -7.2657  -7.2132  -6.5624  -2.5126  -2.4730
    -1.9697   0.7570

          k = 0.3116 0.5397 0.0000 ( 12905 PWs)   bands (ev):

   -22.3710 -22.3651 -22.3391 -22.3377 -22.3357 -17.4576 -17.4218 -13.5864
    -8.7051  -8.6980  -8.3989  -7.2806  -7.1995  -6.5621  -2.5266  -2.4649
    -1.9794   0.7287

          k = 0.3043 0.5271 0.0000 ( 12911 PWs)   bands (ev):

   -22.3718 -22.3642 -22.3395 -22.3378 -22.3352 -17.4665 -17.4178 -13.5826
    -8.7164  -8.6931  -8.3683  -7.2961  -7.1857  -6.5613  -2.5419  -2.4577
    -1.9923   0.6985

          k = 0.2971 0.5146 0.0000 ( 12897 PWs)   bands (ev):

   -22.3726 -22.3632 -22.3398 -22.3380 -22.3348 -17.4763 -17.4143 -13.5775
    -8.7278  -8.6852  -8.3338  -7.3119  -7.1720  -6.5601  -2.5583  -2.4518
    -2.0080   0.6681

          k = 0.2899 0.5020 0.0000 ( 12897 PWs)   bands (ev):

   -22.3732 -22.3623 -22.3401 -22.3382 -22.3344 -17.4872 -17.4115 -13.5712
    -8.7378  -8.6746  -8.2965  -7.3275  -7.1586  -6.5582  -2.5755  -2.4474
    -2.0261   0.6388

          k = 0.2826 0.4895 0.0000 ( 12899 PWs)   bands (ev):

   -22.3738 -22.3614 -22.3405 -22.3384 -22.3340 -17.4991 -17.4092 -13.5635
    -8.7455  -8.6614  -8.2572  -7.3426  -7.1457  -6.5559  -2.5934  -2.4449
    -2.0461   0.6112

          k = 0.2754 0.4769 0.0000 ( 12883 PWs)   bands (ev):

   -22.3743 -22.3606 -22.3408 -22.3386 -22.3336 -17.5120 -17.4076 -13.5544
    -8.7505  -8.6459  -8.2165  -7.3566  -7.1334  -6.5529  -2.6116  -2.4446
    -2.0675   0.5867

          k = 0.2681 0.4644 0.0000 ( 12885 PWs)   bands (ev):

   -22.3747 -22.3598 -22.3410 -22.3389 -22.3334 -17.5259 -17.4066 -13.5440
    -8.7522  -8.6283  -8.1748  -7.3693  -7.1219  -6.5496  -2.6300  -2.4466
    -2.0899   0.5644

          k = 0.2609 0.4518 0.0000 ( 12889 PWs)   bands (ev):

   -22.3750 -22.3590 -22.3413 -22.3391 -22.3332 -17.5406 -17.4063 -13.5322
    -8.7504  -8.6088  -8.1324  -7.3801  -7.1114  -6.5457  -2.6486  -2.4513
    -2.1130   0.5147

          k = 0.2536 0.4393 0.0000 ( 12891 PWs)   bands (ev):

   -22.3752 -22.3583 -22.3415 -22.3393 -22.3330 -17.5563 -17.4068 -13.5192
    -8.7449  -8.5877  -8.0895  -7.3888  -7.1020  -6.5415  -2.6674  -2.4587
    -2.1364   0.4520

          k = 0.2464 0.4267 0.0000 ( 12901 PWs)   bands (ev):

   -22.3753 -22.3576 -22.3418 -22.3396 -22.3329 -17.5727 -17.4079 -13.5048
    -8.7355  -8.5653  -8.0464  -7.3949  -7.0938  -6.5370  -2.6864  -2.4690
    -2.1598   0.3927

          k = 0.2391 0.4142 0.0000 ( 12889 PWs)   bands (ev):

   -22.3753 -22.3569 -22.3420 -22.3398 -22.3329 -17.5900 -17.4097 -13.4892
    -8.7222  -8.5416  -8.0033  -7.3981  -7.0867  -6.5322  -2.7056  -2.4823
    -2.1828   0.3369

          k = 0.2319 0.4016 0.0000 ( 12881 PWs)   bands (ev):

   -22.3752 -22.3563 -22.3421 -22.3400 -22.3329 -17.6079 -17.4122 -13.4725
    -8.7048  -8.5171  -7.9602  -7.3982  -7.0810  -6.5272  -2.7251  -2.4984
    -2.2053   0.2848

          k = 0.2246 0.3891 0.0000 ( 12899 PWs)   bands (ev):

   -22.3750 -22.3557 -22.3423 -22.3403 -22.3329 -17.6264 -17.4153 -13.4548
    -8.6833  -8.4917  -7.9175  -7.3950  -7.0766  -6.5221  -2.7452  -2.5175
    -2.2270   0.2366

          k = 0.2174 0.3765 0.0000 ( 12891 PWs)   bands (ev):

   -22.3747 -22.3552 -22.3425 -22.3405 -22.3331 -17.6455 -17.4191 -13.4361
    -8.6578  -8.4657  -7.8752  -7.3884  -7.0735  -6.5167  -2.7661  -2.5395
    -2.2480   0.1923

          k = 0.2101 0.3640 0.0000 ( 12885 PWs)   bands (ev):

   -22.3744 -22.3547 -22.3426 -22.3407 -22.3333 -17.6651 -17.4235 -13.4165
    -8.6283  -8.4390  -7.8334  -7.3785  -7.0717  -6.5112  -2.7878  -2.5640
    -2.2681   0.1519

          k = 0.2029 0.3514 0.0000 ( 12867 PWs)   bands (ev):

   -22.3739 -22.3542 -22.3427 -22.3409 -22.3335 -17.6850 -17.4284 -13.3963
    -8.5947  -8.4118  -7.7925  -7.3653  -7.0711  -6.5056  -2.8106  -2.5911
    -2.2875   0.1151

          k = 0.1957 0.3389 0.0000 ( 12867 PWs)   bands (ev):

   -22.3734 -22.3538 -22.3427 -22.3412 -22.3338 -17.7052 -17.4339 -13.3754
    -8.5572  -8.3839  -7.7524  -7.3491  -7.0717  -6.4999  -2.8346  -2.6204
    -2.3064   0.0818

          k = 0.1884 0.3263 0.0000 ( 12865 PWs)   bands (ev):

   -22.3727 -22.3534 -22.3428 -22.3414 -22.3341 -17.7256 -17.4399 -13.3541
    -8.5158  -8.3553  -7.7133  -7.3300  -7.0733  -6.4941  -2.8600  -2.6516
    -2.3251   0.0513

          k = 0.1812 0.3138 0.0000 ( 12877 PWs)   bands (ev):

   -22.3720 -22.3531 -22.3428 -22.3416 -22.3345 -17.7460 -17.4464 -13.3324
    -8.4707  -8.3258  -7.6755  -7.3085  -7.0759  -6.4882  -2.8868  -2.6843
    -2.3440   0.0229

          k = 0.1739 0.3012 0.0000 ( 12863 PWs)   bands (ev):

   -22.3713 -22.3529 -22.3428 -22.3418 -22.3349 -17.7665 -17.4532 -13.3106
    -8.4219  -8.2952  -7.6390  -7.2849  -7.0792  -6.4823  -2.9150  -2.7183
    -2.3637  -0.0042

          k = 0.1667 0.2887 0.0000 ( 12849 PWs)   bands (ev):

   -22.3705 -22.3526 -22.3428 -22.3420 -22.3353 -17.7869 -17.4604 -13.2887
    -8.3697  -8.2635  -7.6040  -7.2599  -7.0831  -6.4764  -2.9448  -2.7530
    -2.3846  -0.0310

          k = 0.1594 0.2761 0.0000 ( 12857 PWs)   bands (ev):

   -22.3696 -22.3525 -22.3428 -22.3422 -22.3358 -17.8071 -17.4679 -13.2668
    -8.3142  -8.2303  -7.5706  -7.2338  -7.0875  -6.4706  -2.9762  -2.7880
    -2.4073  -0.0584

          k = 0.1522 0.2636 0.0000 ( 12853 PWs)   bands (ev):

   -22.3687 -22.3523 -22.3427 -22.3425 -22.3362 -17.8271 -17.4756 -13.2452
    -8.2557  -8.1954  -7.5391  -7.2071  -7.0921  -6.4650  -3.0092  -2.8229
    -2.4322  -0.0870

          k = 0.1449 0.2510 0.0000 ( 12861 PWs)   bands (ev):

   -22.3678 -22.3522 -22.3427 -22.3427 -22.3367 -17.8467 -17.4835 -13.2239
    -8.1942  -8.1588  -7.5097  -7.1805  -7.0966  -6.4599  -3.0440  -2.8570
    -2.4597  -0.1166

          k = 0.1377 0.2385 0.0000 ( 12859 PWs)   bands (ev):

   -22.3668 -22.3522 -22.3429 -22.3426 -22.3372 -17.8658 -17.4915 -13.2031
    -8.1302  -8.1201  -7.4824  -7.1543  -7.1007  -6.4553  -3.0806  -2.8899
    -2.4900  -0.1468

          k = 0.1304 0.2259 0.0000 ( 12863 PWs)   bands (ev):

   -22.3658 -22.3522 -22.3431 -22.3425 -22.3376 -17.8845 -17.4995 -13.1828
    -8.0794  -8.0639  -7.4576  -7.1289  -7.1042  -6.4517  -3.1192  -2.9210
    -2.5231  -0.1767

          k = 0.1232 0.2134 0.0000 ( 12859 PWs)   bands (ev):

   -22.3648 -22.3522 -22.3434 -22.3424 -22.3380 -17.9026 -17.5075 -13.1632
    -8.0364  -7.9956  -7.4355  -7.1068  -7.1048  -6.4494  -3.1600  -2.9498
    -2.5587  -0.2055

          k = 0.1159 0.2008 0.0000 ( 12851 PWs)   bands (ev):

   -22.3638 -22.3522 -22.3437 -22.3423 -22.3384 -17.9200 -17.5154 -13.1443
    -7.9911  -7.9258  -7.4161  -7.1081  -7.0822  -6.4488  -3.2032  -2.9757
    -2.5964  -0.2327

          k = 0.1087 0.1883 0.0000 ( 12853 PWs)   bands (ev):

   -22.3629 -22.3523 -22.3439 -22.3422 -22.3387 -17.9367 -17.5232 -13.1263
    -7.9435  -7.8548  -7.3998  -7.1078  -7.0612  -6.4504  -3.2490  -2.9983
    -2.6355  -0.2576

          k = 0.1014 0.1757 0.0000 ( 12849 PWs)   bands (ev):

   -22.3619 -22.3525 -22.3442 -22.3420 -22.3390 -17.9526 -17.5308 -13.1092
    -7.8935  -7.7833  -7.3864  -7.1058  -7.0421  -6.4547  -3.2976  -3.0172
    -2.6752  -0.2804

          k = 0.0942 0.1632 0.0000 ( 12857 PWs)   bands (ev):

   -22.3610 -22.3526 -22.3445 -22.3419 -22.3393 -17.9676 -17.5381 -13.0931
    -7.8414  -7.7117  -7.3760  -7.1019  -7.0249  -6.4622  -3.3490  -3.0320
    -2.7147  -0.3010

          k = 0.0870 0.1506 0.0000 ( 12841 PWs)   bands (ev):

   -22.3601 -22.3528 -22.3448 -22.3417 -22.3395 -17.9818 -17.5452 -13.0781
    -7.7871  -7.6408  -7.3684  -7.0961  -7.0095  -6.4732  -3.4030  -3.0426
    -2.7530  -0.3148

          k = 0.0797 0.1381 0.0000 ( 12843 PWs)   bands (ev):

   -22.3593 -22.3530 -22.3451 -22.3415 -22.3396 -17.9950 -17.5518 -13.0641
    -7.7309  -7.5713  -7.3632  -7.0884  -6.9960  -6.4883  -3.4592  -3.0490
    -2.7894  -0.3303

          k = 0.0725 0.1255 0.0000 ( 12833 PWs)   bands (ev):

   -22.3585 -22.3532 -22.3454 -22.3414 -22.3398 -18.0072 -17.5581 -13.0513
    -7.6730  -7.5043  -7.3600  -7.0790  -6.9842  -6.5076  -3.5170  -3.0512
    -2.8233  -0.3765

          k = 0.0652 0.1130 0.0000 ( 12835 PWs)   bands (ev):

   -22.3578 -22.3534 -22.3457 -22.3412 -22.3399 -18.0184 -17.5639 -13.0396
    -7.6136  -7.4409  -7.3582  -7.0679  -6.9741  -6.5312  -3.5755  -3.0496
    -2.8542  -0.4234

          k = 0.0580 0.1004 0.0000 ( 12857 PWs)   bands (ev):

   -22.3572 -22.3536 -22.3459 -22.3410 -22.3400 -18.0285 -17.5692 -13.0291
    -7.5532  -7.3835  -7.3564  -7.0550  -6.9655  -6.5592  -3.6334  -3.0446
    -2.8819  -0.4683

          k = 0.0507 0.0879 0.0000 ( 12871 PWs)   bands (ev):

   -22.3566 -22.3539 -22.3461 -22.3409 -22.3401 -18.0375 -17.5740 -13.0198
    -7.4922  -7.3609  -7.3266  -7.0404  -6.9583  -6.5912  -3.6895  -3.0371
    -2.9063  -0.5109

          k = 0.0435 0.0753 0.0000 ( 12863 PWs)   bands (ev):

   -22.3561 -22.3541 -22.3463 -22.3407 -22.3401 -18.0453 -17.5782 -13.0117
    -7.4312  -7.3610  -7.2818  -7.0240  -6.9526  -6.6267  -3.7424  -3.0276
    -2.9273  -0.5504

          k = 0.0362 0.0628 0.0000 ( 12869 PWs)   bands (ev):

   -22.3557 -22.3543 -22.3465 -22.3406 -22.3402 -18.0520 -17.5818 -13.0049
    -7.3712  -7.3621  -7.2445  -7.0063  -6.9481  -6.6650  -3.7904  -3.0173
    -2.9448  -0.5860

          k = 0.0290 0.0502 0.0000 ( 12855 PWs)   bands (ev):

   -22.3553 -22.3544 -22.3466 -22.3405 -22.3402 -18.0575 -17.5848 -12.9993
    -7.3633  -7.3135  -7.2154  -6.9881  -6.9450  -6.7046  -3.8322  -3.0070
    -2.9591  -0.6167

          k = 0.0217 0.0377 0.0000 ( 12883 PWs)   bands (ev):

   -22.3551 -22.3545 -22.3467 -22.3404 -22.3403 -18.0618 -17.5872 -12.9949
    -7.3644  -7.2600  -7.1943  -6.9712  -6.9434  -6.7433  -3.8664  -2.9978
    -2.9702  -0.6418

          k = 0.0145 0.0251 0.0000 ( 12903 PWs)   bands (ev):

   -22.3549 -22.3547 -22.3468 -22.3404 -22.3403 -18.0649 -17.5889 -12.9918
    -7.3654  -7.2141  -7.1801  -6.9573  -6.9432  -6.7776  -3.8917  -2.9905
    -2.9780  -0.6604

          k = 0.0072 0.0126 0.0000 ( 12905 PWs)   bands (ev):

   -22.3548 -22.3547 -22.3468 -22.3403 -22.3403 -18.0667 -17.5899 -12.9899
    -7.3659  -7.1815  -7.1720  -6.9482  -6.9443  -6.8021  -3.9073  -2.9858
    -2.9827  -0.6719

          k = 0.0000 0.0000 0.0000 ( 12913 PWs)   bands (ev):

   -22.3547 -22.3547 -22.3469 -22.3403 -22.3403 -18.0673 -17.5902 -12.9893
    -7.3661  -7.1694  -7.1694  -6.9451  -6.9451  -6.8112  -3.9125  -2.9842
    -2.9842  -0.6757

     Writing output data file aiida.save
 
     init_run     :     10.55s CPU     10.81s WALL (       1 calls)
     electrons    :     57.49s CPU     57.82s WALL (       1 calls)

     Called by init_run:
     wfcinit      :      0.00s CPU      0.01s WALL (       1 calls)
     potinit      :      4.05s CPU      4.20s WALL (       1 calls)

     Called by electrons:
     c_bands      :     57.48s CPU     57.82s WALL (       1 calls)
     v_of_rho     :      0.39s CPU      0.43s WALL (       1 calls)
     v_h          :      0.02s CPU      0.03s WALL (       1 calls)
     v_xc         :      0.36s CPU      0.40s WALL (       1 calls)
     newd         :      4.87s CPU      4.90s WALL (       1 calls)

     Called by c_bands:
     init_us_2    :      0.01s CPU      0.02s WALL (       2 calls)
     ccgdiagg     :     47.92s CPU     48.04s WALL (      12 calls)
     wfcrot       :      2.76s CPU      2.77s WALL (      12 calls)

     Called by sum_band:

     Called by *cgdiagg:
     h_psi        :     35.17s CPU     35.18s WALL (    1999 calls)
     s_psi        :      8.22s CPU      8.30s WALL (    3986 calls)
     cdiaghg      :      0.00s CPU      0.01s WALL (      12 calls)

     Called by h_psi:
     h_psi:vloc   :     24.49s CPU     24.49s WALL (    1999 calls)
     h_psi:vnl    :     10.51s CPU     10.53s WALL (    1999 calls)
     add_vuspsi   :      6.80s CPU      6.88s WALL (    1999 calls)

     General routines
     calbec       :      7.54s CPU      7.38s WALL (    3986 calls)
     fft          :      0.36s CPU      0.36s WALL (      13 calls)
     ffts         :      0.01s CPU      0.01s WALL (       1 calls)
     fftw         :     18.31s CPU     18.36s WALL (    4406 calls)
     interpolate  :      0.04s CPU      0.04s WALL (       1 calls)
     davcio       :      0.00s CPU      0.01s WALL (       2 calls)
 
     Parallel routines
     fft_scatter  :      2.16s CPU      2.21s WALL (    4420 calls)

     PAW routines
     PAW_pot      :      0.07s CPU      0.07s WALL (       1 calls)
 
     PWSCF        :  1m 8.74s CPU     1m12.35s WALL

 
   This run was terminated on:   6: 6:51   6Jan2017            

=------------------------------------------------------------------------------=
   JOB DONE.
=------------------------------------------------------------------------------=
