
     Program PWSCF v.6.1 starts on 28Mar2017 at 16:29:53 

     This program is part of the open-source Quantum ESPRESSO suite
     for quantum simulation of materials; please cite
         "P. Giannozzi et al., J. Phys.:Condens. Matter 21 395502 (2009);
          URL http://www.quantum-espresso.org", 
     in publications or presentations arising from this work. More details at
     http://www.quantum-espresso.org/quote

     Parallel version (MPI & OpenMP), running on      50 processor cores
     Number of MPI processes:                50
     Threads/MPI process:                     1
     K-points division:     npool     =      10
     R & G space division:  proc/nbgrp/npool/nimage =       5
     Reading input from aiida.in

     Current dimensions of program PWSCF are:
     Max number of different atomic species (ntypx) = 10
     Max number of k-points (npk) =  40000
     Max angular momentum in pseudopotentials (lmaxx) =  3
               file Pb.pbe-dn-kjpaw_psl.0.2.2.UPF: wavefunction(s)  6S renormalized

     Subspace diagonalization in iterative solution of the eigenvalue problem:
     a serial algorithm will be used

 
     Parallelization info
     --------------------
     sticks:   dense  smooth     PW     G-vecs:    dense   smooth      PW
     Min         337     169     49                58198    20613    3183
     Max         338     170     51                58201    20634    3187
     Sum        1687     847    253               290999   103111   15925
 


     bravais-lattice index     =            0
     lattice parameter (alat)  =       8.7775  a.u.
     unit-cell volume          =    3013.6866 (a.u.)^3
     number of atoms/cell      =            3
     number of atomic types    =            2
     number of electrons       =        28.00
     number of Kohn-Sham states=           14
     kinetic-energy cutoff     =      40.0000  Ry
     charge density cutoff     =     320.0000  Ry
     convergence threshold     =      6.0E-10
     mixing beta               =       0.7000
     number of iterations used =            8  plain     mixing
     Exchange-correlation      =  SLA  PW   PBX  PBC ( 1  4  3  4 0 0)

     celldm(1)=   8.777465  celldm(2)=   0.000000  celldm(3)=   0.000000
     celldm(4)=   0.000000  celldm(5)=   0.000000  celldm(6)=   0.000000

     crystal axes: (cart. coord. in units of alat)
               a(1) = (   1.000000   0.000000   0.000000 )  
               a(2) = (  -0.500000   0.866025   0.000000 )  
               a(3) = (   0.000000   0.000000   5.145885 )  

     reciprocal axes: (cart. coord. in units 2 pi/alat)
               b(1) = (  1.000000  0.577350  0.000000 )  
               b(2) = (  0.000000  1.154701  0.000000 )  
               b(3) = (  0.000000  0.000000  0.194330 )  


     PseudoPot. # 1 for I  read from file:
     ./pseudo/i_pbe_v1.uspp.F.UPF
     MD5 check sum: 51366c2fb896752a147e77acbb9f6bcb
     Pseudo is Ultrasoft + core correction, Zval =  7.0
     Generated by new atomic code, or converted to UPF format
     Using radial grid of  893 points,  6 beta functions with: 
                l(1) =   0
                l(2) =   0
                l(3) =   1
                l(4) =   1
                l(5) =   2
                l(6) =   2
     Q(r) pseudized with  8 coefficients,  rinner =    1.500   1.500   1.500
                                                       1.500   1.500

     PseudoPot. # 2 for Pb read from file:
     ./pseudo/Pb.pbe-dn-kjpaw_psl.0.2.2.UPF
     MD5 check sum: 3430a4e844b953b651517319381e3a28
     Pseudo is Projector augmented-wave + core cor, Zval = 14.0
     Generated using "atomic" code by A. Dal Corso  v.5.0.99 svn rev. 10869
     Shape of augmentation charge: PSQ
     Using radial grid of 1281 points,  6 beta functions with: 
                l(1) =   0
                l(2) =   0
                l(3) =   1
                l(4) =   1
                l(5) =   2
                l(6) =   2
     Q(r) pseudized with 0 coefficients 


     atomic species   valence    mass     pseudopotential
        I              7.00   126.90450     I ( 1.00)
        Pb            14.00   207.20000     Pb( 1.00)

     12 Sym. Ops., with inversion, found


                                    s                        frac. trans.

      isym =  1     identity                                     

 cryst.   s( 1) = (     1          0          0      )
                  (     0          1          0      )
                  (     0          0          1      )

 cart.    s( 1) = (  1.0000000  0.0000000  0.0000000 )
                  (  0.0000000  1.0000000  0.0000000 )
                  (  0.0000000  0.0000000  1.0000000 )


      isym =  2     180 deg rotation - cart. axis [1,0,0]        

 cryst.   s( 2) = (     1          0          0      )
                  (    -1         -1          0      )
                  (     0          0         -1      )

 cart.    s( 2) = (  1.0000000  0.0000000  0.0000000 )
                  (  0.0000000 -1.0000000  0.0000000 )
                  (  0.0000000  0.0000000 -1.0000000 )


      isym =  3     120 deg rotation - cryst. axis [0,0,1]       

 cryst.   s( 3) = (     0          1          0      )
                  (    -1         -1          0      )
                  (     0          0          1      )

 cart.    s( 3) = ( -0.5000000 -0.8660254  0.0000000 )
                  (  0.8660254 -0.5000000  0.0000000 )
                  (  0.0000000  0.0000000  1.0000000 )


      isym =  4     120 deg rotation - cryst. axis [0,0,-1]      

 cryst.   s( 4) = (    -1         -1          0      )
                  (     1          0          0      )
                  (     0          0          1      )

 cart.    s( 4) = ( -0.5000000  0.8660254  0.0000000 )
                  ( -0.8660254 -0.5000000  0.0000000 )
                  (  0.0000000  0.0000000  1.0000000 )


      isym =  5     180 deg rotation - cryst. axis [0,1,0]       

 cryst.   s( 5) = (    -1         -1          0      )
                  (     0          1          0      )
                  (     0          0         -1      )

 cart.    s( 5) = ( -0.5000000 -0.8660254  0.0000000 )
                  ( -0.8660254  0.5000000  0.0000000 )
                  (  0.0000000  0.0000000 -1.0000000 )


      isym =  6     180 deg rotation - cryst. axis [1,1,0]       

 cryst.   s( 6) = (     0          1          0      )
                  (     1          0          0      )
                  (     0          0         -1      )

 cart.    s( 6) = ( -0.5000000  0.8660254  0.0000000 )
                  (  0.8660254  0.5000000  0.0000000 )
                  (  0.0000000  0.0000000 -1.0000000 )


      isym =  7     inversion                                    

 cryst.   s( 7) = (    -1          0          0      )
                  (     0         -1          0      )
                  (     0          0         -1      )

 cart.    s( 7) = ( -1.0000000 -0.0000000  0.0000000 )
                  (  0.0000000 -1.0000000  0.0000000 )
                  (  0.0000000  0.0000000 -1.0000000 )


      isym =  8     inv. 180 deg rotation - cart. axis [1,0,0]   

 cryst.   s( 8) = (    -1          0          0      )
                  (     1          1          0      )
                  (     0          0          1      )

 cart.    s( 8) = ( -1.0000000 -0.0000000  0.0000000 )
                  (  0.0000000  1.0000000  0.0000000 )
                  (  0.0000000  0.0000000  1.0000000 )


      isym =  9     inv. 120 deg rotation - cryst. axis [0,0,1]  

 cryst.   s( 9) = (     0         -1          0      )
                  (     1          1          0      )
                  (     0          0         -1      )

 cart.    s( 9) = (  0.5000000  0.8660254  0.0000000 )
                  ( -0.8660254  0.5000000  0.0000000 )
                  (  0.0000000  0.0000000 -1.0000000 )


      isym = 10     inv. 120 deg rotation - cryst. axis [0,0,-1] 

 cryst.   s(10) = (     1          1          0      )
                  (    -1          0          0      )
                  (     0          0         -1      )

 cart.    s(10) = (  0.5000000 -0.8660254  0.0000000 )
                  (  0.8660254  0.5000000  0.0000000 )
                  (  0.0000000  0.0000000 -1.0000000 )


      isym = 11     inv. 180 deg rotation - cryst. axis [0,1,0]  

 cryst.   s(11) = (     1          1          0      )
                  (     0         -1          0      )
                  (     0          0          1      )

 cart.    s(11) = (  0.5000000  0.8660254  0.0000000 )
                  (  0.8660254 -0.5000000  0.0000000 )
                  (  0.0000000  0.0000000  1.0000000 )


      isym = 12     inv. 180 deg rotation - cryst. axis [1,1,0]  

 cryst.   s(12) = (     0         -1          0      )
                  (    -1          0          0      )
                  (     0          0          1      )

 cart.    s(12) = (  0.5000000 -0.8660254  0.0000000 )
                  ( -0.8660254 -0.5000000  0.0000000 )
                  (  0.0000000  0.0000000  1.0000000 )


   Cartesian axes

     site n.     atom                  positions (alat units)
         1           I   tau(   1) = (   0.5000000   0.2886751   2.9770045  )
         2           Pb  tau(   2) = (   0.5000000   0.8660254   2.5729426  )
         3           I   tau(   3) = (  -0.0000000   0.5773503   2.1688808  )

   Crystallographic axes

     site n.     atom                  positions (cryst. coord.)
         1           I   tau(   1) = (  0.6666667  0.3333333  0.5785213  )
         2           Pb  tau(   2) = (  1.0000000  1.0000000  0.5000000  )
         3           I   tau(   3) = (  0.3333333  0.6666667  0.4214787  )

     number of k points=    10
                       cart. coord. in units 2pi/alat
        k(    1) = (   0.0000000   0.0000000   0.0000000), wk =   0.0312500
        k(    2) = (   0.0000000   0.1443376   0.0000000), wk =   0.1875000
        k(    3) = (   0.0000000   0.2886751   0.0000000), wk =   0.1875000
        k(    4) = (   0.0000000   0.4330127   0.0000000), wk =   0.1875000
        k(    5) = (   0.0000000  -0.5773503   0.0000000), wk =   0.0937500
        k(    6) = (   0.1250000   0.2165064   0.0000000), wk =   0.1875000
        k(    7) = (   0.1250000   0.3608439   0.0000000), wk =   0.3750000
        k(    8) = (   0.1250000   0.5051815   0.0000000), wk =   0.3750000
        k(    9) = (   0.2500000   0.4330127   0.0000000), wk =   0.1875000
        k(   10) = (   0.2500000   0.5773503   0.0000000), wk =   0.1875000

                       cryst. coord.
        k(    1) = (   0.0000000   0.0000000   0.0000000), wk =   0.0312500
        k(    2) = (   0.0000000   0.1250000   0.0000000), wk =   0.1875000
        k(    3) = (   0.0000000   0.2500000   0.0000000), wk =   0.1875000
        k(    4) = (   0.0000000   0.3750000   0.0000000), wk =   0.1875000
        k(    5) = (   0.0000000  -0.5000000   0.0000000), wk =   0.0937500
        k(    6) = (   0.1250000   0.1250000   0.0000000), wk =   0.1875000
        k(    7) = (   0.1250000   0.2500000   0.0000000), wk =   0.3750000
        k(    8) = (   0.1250000   0.3750000   0.0000000), wk =   0.3750000
        k(    9) = (   0.2500000   0.2500000   0.0000000), wk =   0.1875000
        k(   10) = (   0.2500000   0.3750000   0.0000000), wk =   0.1875000

     Dense  grid:   290999 G-vectors     FFT dimensions: (  50,  50, 270)

     Smooth grid:   103111 G-vectors     FFT dimensions: (  36,  36, 192)

     Estimated max dynamical RAM per process >      40.36MB

     Estimated total allocated dynamical RAM >    2018.14MB
 ----2D----2D----2D----2D----2D----2D
 THE CODE IS RUNNING WITH 2D CUTOFF
 ----2D----2D----2D----2D----2D----2D

     Initial potential from superposition of free atoms
     Check: negative starting charge=   -0.000776

     starting charge   27.94521, renormalised to   28.00000

     negative rho (up, down):  7.770E-04 0.000E+00
     Starting wfc are   17 randomized atomic wfcs
     Checking if some PAW data can be deallocated... 
       node    0, deallocated PAW data for type:  2
       node    1, deallocated PAW data for type:  2
       node    2, deallocated PAW data for type:  2
       node    3, deallocated PAW data for type:  2
       node    4, deallocated PAW data for type:  2
       node    5, deallocated PAW data for type:  2
       node    6, deallocated PAW data for type:  2
       node    7, deallocated PAW data for type:  2
       node    8, deallocated PAW data for type:  2
       node    9, deallocated PAW data for type:  2
       node   10, deallocated PAW data for type:  2
       node   11, deallocated PAW data for type:  2
       node   12, deallocated PAW data for type:  2
       node   13, deallocated PAW data for type:  2
       node   14, deallocated PAW data for type:  2
       node   15, deallocated PAW data for type:  2
       node   16, deallocated PAW data for type:  2
       node   34, deallocated PAW data for type:  2
       node   35, deallocated PAW data for type:  2
       node   36, deallocated PAW data for type:  2
       node   37, deallocated PAW data for type:  2
       node   38, deallocated PAW data for type:  2
       node   39, deallocated PAW data for type:  2
       node   40, deallocated PAW data for type:  2
       node   41, deallocated PAW data for type:  2
       node   42, deallocated PAW data for type:  2
       node   43, deallocated PAW data for type:  2
       node   44, deallocated PAW data for type:  2
       node   45, deallocated PAW data for type:  2
       node   46, deallocated PAW data for type:  2
       node   47, deallocated PAW data for type:  2
       node   48, deallocated PAW data for type:  2
       node   49, deallocated PAW data for type:  2

     total cpu time spent up to now is        2.7 secs

     per-process dynamical memory:     7.7 Mb

     Self-consistent Calculation

     iteration #  1     ecut=    40.00 Ry     beta=0.70
     Davidson diagonalization with overlap
     ethr =  1.00E-02,  avg # of iterations =  1.0

     Threshold (ethr) on eigenvalues was too large:
     Diagonalizing with lowered threshold

     Davidson diagonalization with overlap
     ethr =  4.53E-04,  avg # of iterations =  3.9

     negative rho (up, down):  3.685E-04 0.000E+00

     total cpu time spent up to now is        4.5 secs

     total energy              =   -1001.95776738 Ry
     Harris-Foulkes estimate   =   -1002.02347739 Ry
     estimated scf accuracy    <       0.09033321 Ry

     iteration #  2     ecut=    40.00 Ry     beta=0.70
     Davidson diagonalization with overlap
     ethr =  3.23E-04,  avg # of iterations =  3.9

     negative rho (up, down):  3.253E-04 0.000E+00

     total cpu time spent up to now is        5.6 secs

     total energy              =   -1001.96806074 Ry
     Harris-Foulkes estimate   =   -1002.03959755 Ry
     estimated scf accuracy    <       0.15985014 Ry

     iteration #  3     ecut=    40.00 Ry     beta=0.70
     Davidson diagonalization with overlap
     ethr =  3.23E-04,  avg # of iterations =  3.0

     negative rho (up, down):  3.143E-04 0.000E+00

     total cpu time spent up to now is        6.8 secs

     total energy              =   -1002.00230413 Ry
     Harris-Foulkes estimate   =   -1002.00357179 Ry
     estimated scf accuracy    <       0.00329753 Ry

     iteration #  4     ecut=    40.00 Ry     beta=0.70
     Davidson diagonalization with overlap
     ethr =  1.18E-05,  avg # of iterations =  3.4

     negative rho (up, down):  3.164E-04 0.000E+00

     total cpu time spent up to now is        7.9 secs

     total energy              =   -1002.00364904 Ry
     Harris-Foulkes estimate   =   -1002.00365418 Ry
     estimated scf accuracy    <       0.00043581 Ry

     iteration #  5     ecut=    40.00 Ry     beta=0.70
     Davidson diagonalization with overlap
     ethr =  1.56E-06,  avg # of iterations =  4.4

     negative rho (up, down):  3.182E-04 0.000E+00

     total cpu time spent up to now is        9.1 secs

     total energy              =   -1002.00374691 Ry
     Harris-Foulkes estimate   =   -1002.00374210 Ry
     estimated scf accuracy    <       0.00000970 Ry

     iteration #  6     ecut=    40.00 Ry     beta=0.70
     Davidson diagonalization with overlap
     ethr =  3.47E-08,  avg # of iterations =  4.8

     negative rho (up, down):  3.178E-04 0.000E+00

     total cpu time spent up to now is       10.3 secs

     total energy              =   -1002.00375869 Ry
     Harris-Foulkes estimate   =   -1002.00375943 Ry
     estimated scf accuracy    <       0.00000192 Ry

     iteration #  7     ecut=    40.00 Ry     beta=0.70
     Davidson diagonalization with overlap
     ethr =  6.84E-09,  avg # of iterations =  2.8

     negative rho (up, down):  3.179E-04 0.000E+00

     total cpu time spent up to now is       11.4 secs

     total energy              =   -1002.00375903 Ry
     Harris-Foulkes estimate   =   -1002.00375904 Ry
     estimated scf accuracy    <       0.00000008 Ry

     iteration #  8     ecut=    40.00 Ry     beta=0.70
     Davidson diagonalization with overlap
     ethr =  2.79E-10,  avg # of iterations =  4.3

     negative rho (up, down):  3.178E-04 0.000E+00

     total cpu time spent up to now is       12.6 secs

     total energy              =   -1002.00375913 Ry
     Harris-Foulkes estimate   =   -1002.00375913 Ry
     estimated scf accuracy    <       0.00000002 Ry

     iteration #  9     ecut=    40.00 Ry     beta=0.70
     Davidson diagonalization with overlap
     ethr =  7.39E-11,  avg # of iterations =  2.9

     negative rho (up, down):  3.178E-04 0.000E+00

     total cpu time spent up to now is       13.7 secs

     End of self-consistent calculation

          k = 0.0000 0.0000 0.0000 ( 12913 PWs)   bands (ev):

   -22.3548 -22.3548 -22.3470 -22.3404 -22.3404 -18.0674 -17.5903 -12.9894
    -7.3662  -7.1695  -7.1695  -6.9451  -6.9451  -6.8113

     occupation numbers 
     1.0000   1.0000   1.0000   1.0000   1.0000   1.0000   1.0000   1.0000
     1.0000   1.0000   1.0000   1.0000   1.0000   1.0000

          k = 0.0000 0.1443 0.0000 ( 12821 PWs)   bands (ev):

   -22.3588 -22.3531 -22.3456 -22.3414 -22.3399 -18.0078 -17.5584 -13.0509
    -7.7144  -7.3794  -7.3551  -7.2287  -6.9137  -6.5107

     occupation numbers 
     1.0000   1.0000   1.0000   1.0000   1.0000   1.0000   1.0000   1.0000
     1.0000   1.0000   1.0000   1.0000   1.0000   1.0000

          k = 0.0000 0.2887 0.0000 ( 12861 PWs)   bands (ev):

   -22.3694 -22.3504 -22.3450 -22.3402 -22.3374 -17.8489 -17.4851 -13.2227
    -8.3928  -7.7785  -7.6635  -7.2343  -6.9463  -6.5536

     occupation numbers 
     1.0000   1.0000   1.0000   1.0000   1.0000   1.0000   1.0000   1.0000
     1.0000   1.0000   1.0000   1.0000   1.0000   1.0000

          k = 0.0000 0.4330 0.0000 ( 12872 PWs)   bands (ev):

   -22.3805 -22.3496 -22.3466 -22.3363 -22.3330 -17.6548 -17.4277 -13.4302
    -8.8933  -8.0063  -7.9057  -7.1809  -7.0108  -6.8491

     occupation numbers 
     1.0000   1.0000   1.0000   1.0000   1.0000   1.0000   1.0000   1.0000
     1.0000   1.0000   1.0000   1.0000   1.0000   1.0000

          k = 0.0000-0.5774 0.0000 ( 12888 PWs)   bands (ev):

   -22.3851 -22.3496 -22.3473 -22.3346 -22.3309 -17.5462 -17.4253 -13.5274
    -9.0756  -8.0442  -7.9951  -7.2024  -7.0404  -6.9687

     occupation numbers 
     1.0000   1.0000   1.0000   1.0000   1.0000   1.0000   1.0000   1.0000
     1.0000   1.0000   1.0000   1.0000   1.0000   1.0000

          k = 0.1250 0.2165 0.0000 ( 12863 PWs)   bands (ev):

   -22.3652 -22.3523 -22.3434 -22.3425 -22.3380 -17.8982 -17.5056 -13.1681
    -8.0474  -8.0130  -7.4408  -7.1108  -7.1063  -6.4499

     occupation numbers 
     1.0000   1.0000   1.0000   1.0000   1.0000   1.0000   1.0000   1.0000
     1.0000   1.0000   1.0000   1.0000   1.0000   1.0000

          k = 0.1250 0.3608 0.0000 ( 12866 PWs)   bands (ev):

   -22.3744 -22.3524 -22.3444 -22.3398 -22.3342 -17.7194 -17.4391 -13.3615
    -8.6331  -8.2155  -7.7682  -7.2657  -7.0690  -6.5602

     occupation numbers 
     1.0000   1.0000   1.0000   1.0000   1.0000   1.0000   1.0000   1.0000
     1.0000   1.0000   1.0000   1.0000   1.0000   1.0000

          k = 0.1250 0.5052 0.0000 ( 12895 PWs)   bands (ev):

   -22.3810 -22.3530 -22.3455 -22.3358 -22.3323 -17.5560 -17.4157 -13.5199
    -8.9640  -8.2616  -8.0568  -7.2450  -7.1200  -6.7287

     occupation numbers 
     1.0000   1.0000   1.0000   1.0000   1.0000   1.0000   1.0000   1.0000
     1.0000   1.0000   1.0000   1.0000   1.0000   1.0000

          k = 0.2500 0.4330 0.0000 ( 12903 PWs)   bands (ev):

   -22.3754 -22.3580 -22.3418 -22.3395 -22.3330 -17.5645 -17.4073 -13.5123
    -8.7408  -8.5768  -8.0681  -7.3922  -7.0978  -6.5394

     occupation numbers 
     1.0000   1.0000   1.0000   1.0000   1.0000   1.0000   1.0000   1.0000
     1.0000   1.0000   1.0000   1.0000   1.0000   1.0000

          k = 0.2500 0.5774 0.0000 ( 12881 PWs)   bands (ev):

   -22.3742 -22.3618 -22.3413 -22.3359 -22.3356 -17.4728 -17.4178 -13.5789
    -8.8151  -8.5973  -8.3205  -7.2832  -7.1935  -6.5773

     occupation numbers 
     1.0000   1.0000   1.0000   1.0000   1.0000   1.0000   1.0000   1.0000
     1.0000   1.0000   1.0000   1.0000   1.0000   1.0000

     highest occupied level (ev):    -6.4499

!    total energy              =   -1002.00375913 Ry
     Harris-Foulkes estimate   =   -1002.00375913 Ry
     estimated scf accuracy    <          1.8E-10 Ry

     The total energy is the sum of the following terms:

     one-electron contribution =   -1255.28594689 Ry
     hartree contribution      =     633.12184062 Ry
     xc contribution           =    -141.07299121 Ry
     ewald contribution        =     489.67069600 Ry
     one-center paw contrib.   =    -728.43735765 Ry
      -> PAW hartree energy AE =       0.00000000 Ry
      -> PAW hartree energy PS =       0.00000000 Ry
      -> PAW xc energy AE      =       0.00000000 Ry
      -> PAW xc energy PS      =       0.00000000 Ry
      -> total E_H with PAW    =     633.12184062 Ry
      -> total E_XC with PAW   =    -141.07299121 Ry

     convergence has been achieved in   9 iterations

     Writing output data file aiida.save
 
     init_run     :      2.05s CPU      2.21s WALL (       1 calls)
     electrons    :      8.50s CPU     11.07s WALL (       1 calls)

     Called by init_run:
     wfcinit      :      0.04s CPU      0.04s WALL (       1 calls)
     wfcinit:atom :      0.00s CPU      0.00s WALL (       1 calls)
     wfcinit:wfcr :      0.03s CPU      0.03s WALL (       1 calls)
     potinit      :      0.53s CPU      0.53s WALL (       1 calls)

     Called by electrons:
     c_bands      :      1.04s CPU      1.05s WALL (      10 calls)
     sum_band     :      3.61s CPU      4.86s WALL (      10 calls)
     v_of_rho     :      0.79s CPU      0.79s WALL (      10 calls)
     v_h          :      0.04s CPU      0.05s WALL (      10 calls)
     v_xc         :      0.74s CPU      0.74s WALL (      10 calls)
     newd         :      2.59s CPU      4.02s WALL (      10 calls)
     PAW_pot      :      0.57s CPU      0.56s WALL (      10 calls)
     mix_rho      :      0.12s CPU      0.12s WALL (      10 calls)

     Called by c_bands:
     init_us_2    :      0.05s CPU      0.03s WALL (      21 calls)
     cegterg      :      0.86s CPU      0.88s WALL (      10 calls)

     Called by sum_band:
     sum_band:bec :      0.00s CPU      0.00s WALL (      10 calls)
     addusdens    :      3.18s CPU      4.43s WALL (      10 calls)

     Called by *egterg:
     h_psi        :      0.75s CPU      0.76s WALL (      46 calls)
     s_psi        :      0.02s CPU      0.02s WALL (      46 calls)
     g_psi        :      0.00s CPU      0.01s WALL (      35 calls)
     cdiaghg      :      0.03s CPU      0.02s WALL (      44 calls)
     cegterg:over :      0.01s CPU      0.03s WALL (      35 calls)
     cegterg:upda :      0.04s CPU      0.02s WALL (      35 calls)
     cegterg:last :      0.01s CPU      0.01s WALL (      12 calls)

     Called by h_psi:
     h_psi:pot    :      0.75s CPU      0.76s WALL (      46 calls)
     h_psi:calbec :      0.04s CPU      0.03s WALL (      46 calls)
     vloc_psi     :      0.70s CPU      0.70s WALL (      46 calls)
     add_vuspsi   :      0.02s CPU      0.02s WALL (      46 calls)

     General routines
     calbec       :      0.04s CPU      0.04s WALL (      56 calls)
     fft          :      0.74s CPU      0.71s WALL (     160 calls)
     ffts         :      0.03s CPU      0.03s WALL (      20 calls)
     fftw         :      0.70s CPU      0.69s WALL (    1026 calls)
     interpolate  :      0.12s CPU      0.12s WALL (      20 calls)
     davcio       :      0.00s CPU      0.00s WALL (       1 calls)
 
     Parallel routines
     fft_scatter  :      0.40s CPU      0.44s WALL (    1206 calls)

     PAW routines
     PAW_pot      :      0.57s CPU      0.56s WALL (      10 calls)
     PAW_symme    :      0.01s CPU      0.01s WALL (      20 calls)
 
     PWSCF        :    11.00s CPU        14.06s WALL

 
   This run was terminated on:  16:30: 7  28Mar2017            

=------------------------------------------------------------------------------=
   JOB DONE.
=------------------------------------------------------------------------------=
