
     Program PWSCF v.5.1 starts on  5Jan2017 at 23:49:37 

     This program is part of the open-source Quantum ESPRESSO suite
     for quantum simulation of materials; please cite
         "P. Giannozzi et al., J. Phys.:Condens. Matter 21 395502 (2009);
          URL http://www.quantum-espresso.org", 
     in publications or presentations arising from this work. More details at
     http://www.quantum-espresso.org/quote

     Parallel version (MPI), running on    66 processors
     K-points division:     npool     =      66
     Reading input from aiida.in

     Current dimensions of program PWSCF are:
     Max number of different atomic species (ntypx) = 10
     Max number of k-points (npk) =  40000
     Max angular momentum in pseudopotentials (lmaxx) =  3

     Atomic positions and unit cell read from directory:
     ./out/aiida.save/
 

     Subspace diagonalization in iterative solution of the eigenvalue problem:
     a serial algorithm will be used

 
     G-vector sticks info
     --------------------
     sticks:   dense  smooth     PW     G-vecs:    dense   smooth      PW
     Sum         595     301     91                95959    34059    6065
 
 ----2D----2D----2D----2D----2D----2D
 THE CODE IS RUNNING WITH 2D CUTOFF
 ----2D----2D----2D----2D----2D----2D


     bravais-lattice index     =            0
     lattice parameter (alat)  =       4.6600  a.u.
     unit-cell volume          =     710.7760 (a.u.)^3
     number of atoms/cell      =            2
     number of atomic types    =            1
     number of electrons       =         8.00
     number of Kohn-Sham states=            8
     kinetic-energy cutoff     =      50.0000  Ry
     charge density cutoff     =     400.0000  Ry
     Exchange-correlation      = SLA  PW   PBE  PBE ( 1  4  3  4 0 0)

     celldm(1)=   4.660007  celldm(2)=   0.000000  celldm(3)=   0.000000
     celldm(4)=   0.000000  celldm(5)=   0.000000  celldm(6)=   0.000000

     crystal axes: (cart. coord. in units of alat)
               a(1) = (   1.000000   0.000000   0.000000 )  
               a(2) = (  -0.500000   0.866025   0.000000 )  
               a(3) = (   0.000000   0.000000   8.110400 )  

     reciprocal axes: (cart. coord. in units 2 pi/alat)
               b(1) = (  1.000000  0.577350  0.000000 )  
               b(2) = (  0.000000  1.154701  0.000000 )  
               b(3) = (  0.000000  0.000000  0.123298 )  


     PseudoPot. # 1 for C  read from file:
     ./pseudo/c_pbe_v1.2.uspp.F.UPF
     MD5 check sum: d1aef80898a10debaa0f26306b886e00
     Pseudo is Ultrasoft + core correction, Zval =  4.0
     Generated by new atomic code, or converted to UPF format
     Using radial grid of  721 points,  4 beta functions with: 
                l(1) =   0
                l(2) =   0
                l(3) =   1
                l(4) =   1
     Q(r) pseudized with  8 coefficients,  rinner =    1.100   1.100   1.100


     atomic species   valence    mass     pseudopotential
        C              4.00    12.01100     C ( 1.00)

     24 Sym. Ops., with inversion, found (12 have fractional translation)


                                    s                        frac. trans.

      isym =  1     identity                                     

 cryst.   s( 1) = (     1          0          0      )
                  (     0          1          0      )
                  (     0          0          1      )

 cart.    s( 1) = (  1.0000000  0.0000000  0.0000000 )
                  (  0.0000000  1.0000000  0.0000000 )
                  (  0.0000000  0.0000000  1.0000000 )


      isym =  2     180 deg rotation - cart. axis [0,0,1]        

 cryst.   s( 2) = (    -1          0          0      )    f =( -0.3333333 )
                  (     0         -1          0      )       (  0.3333333 )
                  (     0          0          1      )       (  0.0000000 )

 cart.    s( 2) = ( -1.0000000  0.0000000  0.0000000 )    f =( -0.5000000 )
                  (  0.0000000 -1.0000000  0.0000000 )       (  0.2886751 )
                  (  0.0000000  0.0000000  1.0000000 )       (  0.0000000 )


      isym =  3     180 deg rotation - cart. axis [0,1,0]        

 cryst.   s( 3) = (    -1          0          0      )
                  (     1          1          0      )
                  (     0          0         -1      )

 cart.    s( 3) = ( -1.0000000  0.0000000  0.0000000 )
                  (  0.0000000  1.0000000  0.0000000 )
                  (  0.0000000  0.0000000 -1.0000000 )


      isym =  4     180 deg rotation - cart. axis [1,0,0]        

 cryst.   s( 4) = (     1          0          0      )    f =( -0.3333333 )
                  (    -1         -1          0      )       (  0.3333333 )
                  (     0          0         -1      )       (  0.0000000 )

 cart.    s( 4) = (  1.0000000  0.0000000  0.0000000 )    f =( -0.5000000 )
                  (  0.0000000 -1.0000000  0.0000000 )       (  0.2886751 )
                  (  0.0000000  0.0000000 -1.0000000 )       (  0.0000000 )


      isym =  5      60 deg rotation - cryst. axis [0,0,1]       

 cryst.   s( 5) = (     1          1          0      )    f =( -0.3333333 )
                  (    -1          0          0      )       (  0.3333333 )
                  (     0          0          1      )       (  0.0000000 )

 cart.    s( 5) = (  0.5000000 -0.8660254  0.0000000 )    f =( -0.5000000 )
                  (  0.8660254  0.5000000  0.0000000 )       (  0.2886751 )
                  (  0.0000000  0.0000000  1.0000000 )       (  0.0000000 )


      isym =  6      60 deg rotation - cryst. axis [0,0,-1]      

 cryst.   s( 6) = (     0         -1          0      )    f =( -0.3333333 )
                  (     1          1          0      )       (  0.3333333 )
                  (     0          0          1      )       (  0.0000000 )

 cart.    s( 6) = (  0.5000000  0.8660254  0.0000000 )    f =( -0.5000000 )
                  ( -0.8660254  0.5000000  0.0000000 )       (  0.2886751 )
                  (  0.0000000  0.0000000  1.0000000 )       (  0.0000000 )


      isym =  7     120 deg rotation - cryst. axis [0,0,1]       

 cryst.   s( 7) = (     0          1          0      )
                  (    -1         -1          0      )
                  (     0          0          1      )

 cart.    s( 7) = ( -0.5000000 -0.8660254  0.0000000 )
                  (  0.8660254 -0.5000000  0.0000000 )
                  (  0.0000000  0.0000000  1.0000000 )


      isym =  8     120 deg rotation - cryst. axis [0,0,-1]      

 cryst.   s( 8) = (    -1         -1          0      )
                  (     1          0          0      )
                  (     0          0          1      )

 cart.    s( 8) = ( -0.5000000  0.8660254  0.0000000 )
                  ( -0.8660254 -0.5000000  0.0000000 )
                  (  0.0000000  0.0000000  1.0000000 )


      isym =  9     180 deg rotation - cryst. axis [1,-1,0]      

 cryst.   s( 9) = (     0         -1          0      )
                  (    -1          0          0      )
                  (     0          0         -1      )

 cart.    s( 9) = (  0.5000000 -0.8660254  0.0000000 )
                  ( -0.8660254 -0.5000000  0.0000000 )
                  (  0.0000000  0.0000000 -1.0000000 )


      isym = 10     180 deg rotation - cryst. axis [2,1,0]       

 cryst.   s(10) = (     1          1          0      )
                  (     0         -1          0      )
                  (     0          0         -1      )

 cart.    s(10) = (  0.5000000  0.8660254  0.0000000 )
                  (  0.8660254 -0.5000000  0.0000000 )
                  (  0.0000000  0.0000000 -1.0000000 )


      isym = 11     180 deg rotation - cryst. axis [0,1,0]       

 cryst.   s(11) = (    -1         -1          0      )    f =( -0.3333333 )
                  (     0          1          0      )       (  0.3333333 )
                  (     0          0         -1      )       (  0.0000000 )

 cart.    s(11) = ( -0.5000000 -0.8660254  0.0000000 )    f =( -0.5000000 )
                  ( -0.8660254  0.5000000  0.0000000 )       (  0.2886751 )
                  (  0.0000000  0.0000000 -1.0000000 )       (  0.0000000 )


      isym = 12     180 deg rotation - cryst. axis [1,1,0]       

 cryst.   s(12) = (     0          1          0      )    f =( -0.3333333 )
                  (     1          0          0      )       (  0.3333333 )
                  (     0          0         -1      )       (  0.0000000 )

 cart.    s(12) = ( -0.5000000  0.8660254  0.0000000 )    f =( -0.5000000 )
                  (  0.8660254  0.5000000  0.0000000 )       (  0.2886751 )
                  (  0.0000000  0.0000000 -1.0000000 )       (  0.0000000 )


      isym = 13     inversion                                    

 cryst.   s(13) = (    -1          0          0      )    f =( -0.3333333 )
                  (     0         -1          0      )       (  0.3333333 )
                  (     0          0         -1      )       (  0.0000000 )

 cart.    s(13) = ( -1.0000000  0.0000000  0.0000000 )    f =( -0.5000000 )
                  (  0.0000000 -1.0000000  0.0000000 )       (  0.2886751 )
                  (  0.0000000  0.0000000 -1.0000000 )       (  0.0000000 )


      isym = 14     inv. 180 deg rotation - cart. axis [0,0,1]   

 cryst.   s(14) = (     1          0          0      )
                  (     0          1          0      )
                  (     0          0         -1      )

 cart.    s(14) = (  1.0000000  0.0000000  0.0000000 )
                  (  0.0000000  1.0000000  0.0000000 )
                  (  0.0000000  0.0000000 -1.0000000 )


      isym = 15     inv. 180 deg rotation - cart. axis [0,1,0]   

 cryst.   s(15) = (     1          0          0      )    f =( -0.3333333 )
                  (    -1         -1          0      )       (  0.3333333 )
                  (     0          0          1      )       (  0.0000000 )

 cart.    s(15) = (  1.0000000  0.0000000  0.0000000 )    f =( -0.5000000 )
                  (  0.0000000 -1.0000000  0.0000000 )       (  0.2886751 )
                  (  0.0000000  0.0000000  1.0000000 )       (  0.0000000 )


      isym = 16     inv. 180 deg rotation - cart. axis [1,0,0]   

 cryst.   s(16) = (    -1          0          0      )
                  (     1          1          0      )
                  (     0          0          1      )

 cart.    s(16) = ( -1.0000000  0.0000000  0.0000000 )
                  (  0.0000000  1.0000000  0.0000000 )
                  (  0.0000000  0.0000000  1.0000000 )


      isym = 17     inv.  60 deg rotation - cryst. axis [0,0,1]  

 cryst.   s(17) = (    -1         -1          0      )
                  (     1          0          0      )
                  (     0          0         -1      )

 cart.    s(17) = ( -0.5000000  0.8660254  0.0000000 )
                  ( -0.8660254 -0.5000000  0.0000000 )
                  (  0.0000000  0.0000000 -1.0000000 )


      isym = 18     inv.  60 deg rotation - cryst. axis [0,0,-1] 

 cryst.   s(18) = (     0          1          0      )
                  (    -1         -1          0      )
                  (     0          0         -1      )

 cart.    s(18) = ( -0.5000000 -0.8660254  0.0000000 )
                  (  0.8660254 -0.5000000  0.0000000 )
                  (  0.0000000  0.0000000 -1.0000000 )


      isym = 19     inv. 120 deg rotation - cryst. axis [0,0,1]  

 cryst.   s(19) = (     0         -1          0      )    f =( -0.3333333 )
                  (     1          1          0      )       (  0.3333333 )
                  (     0          0         -1      )       (  0.0000000 )

 cart.    s(19) = (  0.5000000  0.8660254  0.0000000 )    f =( -0.5000000 )
                  ( -0.8660254  0.5000000  0.0000000 )       (  0.2886751 )
                  (  0.0000000  0.0000000 -1.0000000 )       (  0.0000000 )


      isym = 20     inv. 120 deg rotation - cryst. axis [0,0,-1] 

 cryst.   s(20) = (     1          1          0      )    f =( -0.3333333 )
                  (    -1          0          0      )       (  0.3333333 )
                  (     0          0         -1      )       (  0.0000000 )

 cart.    s(20) = (  0.5000000 -0.8660254  0.0000000 )    f =( -0.5000000 )
                  (  0.8660254  0.5000000  0.0000000 )       (  0.2886751 )
                  (  0.0000000  0.0000000 -1.0000000 )       (  0.0000000 )


      isym = 21     inv. 180 deg rotation - cryst. axis [1,-1,0] 

 cryst.   s(21) = (     0          1          0      )    f =( -0.3333333 )
                  (     1          0          0      )       (  0.3333333 )
                  (     0          0          1      )       (  0.0000000 )

 cart.    s(21) = ( -0.5000000  0.8660254  0.0000000 )    f =( -0.5000000 )
                  (  0.8660254  0.5000000  0.0000000 )       (  0.2886751 )
                  (  0.0000000  0.0000000  1.0000000 )       (  0.0000000 )


      isym = 22     inv. 180 deg rotation - cryst. axis [2,1,0]  

 cryst.   s(22) = (    -1         -1          0      )    f =( -0.3333333 )
                  (     0          1          0      )       (  0.3333333 )
                  (     0          0          1      )       (  0.0000000 )

 cart.    s(22) = ( -0.5000000 -0.8660254  0.0000000 )    f =( -0.5000000 )
                  ( -0.8660254  0.5000000  0.0000000 )       (  0.2886751 )
                  (  0.0000000  0.0000000  1.0000000 )       (  0.0000000 )


      isym = 23     inv. 180 deg rotation - cryst. axis [0,1,0]  

 cryst.   s(23) = (     1          1          0      )
                  (     0         -1          0      )
                  (     0          0          1      )

 cart.    s(23) = (  0.5000000  0.8660254  0.0000000 )
                  (  0.8660254 -0.5000000  0.0000000 )
                  (  0.0000000  0.0000000  1.0000000 )


      isym = 24     inv. 180 deg rotation - cryst. axis [1,1,0]  

 cryst.   s(24) = (     0         -1          0      )
                  (    -1          0          0      )
                  (     0          0          1      )

 cart.    s(24) = (  0.5000000 -0.8660254  0.0000000 )
                  ( -0.8660254 -0.5000000  0.0000000 )
                  (  0.0000000  0.0000000  1.0000000 )


   Cartesian axes

     site n.     atom                  positions (alat units)
         1           C   tau(   1) = (   0.0000000   0.5773503   4.0551999  )
         2           C   tau(   2) = (   0.0000000   0.0000000   4.0551998  )

   Crystallographic axes

     site n.     atom                  positions (cryst. coord.)
         1           C   tau(   1) = (  0.3333333  0.6666667  0.5000000  )
         2           C   tau(   2) = (  0.0000000  0.0000000  0.5000000  )

     number of k points=   132  Marzari-Vanderbilt smearing, width (Ry)=  0.0200
                       cart. coord. in units 2pi/alat
        k(    1) = (   0.0000000   0.0000000   0.0000000), wk =   0.0151515
        k(    2) = (   0.0102041   0.0058913   0.0000000), wk =   0.0151515
        k(    3) = (   0.0204082   0.0117827   0.0000000), wk =   0.0151515
        k(    4) = (   0.0306122   0.0176740   0.0000000), wk =   0.0151515
        k(    5) = (   0.0408163   0.0235653   0.0000000), wk =   0.0151515
        k(    6) = (   0.0510204   0.0294566   0.0000000), wk =   0.0151515
        k(    7) = (   0.0612245   0.0353480   0.0000000), wk =   0.0151515
        k(    8) = (   0.0714286   0.0412393   0.0000000), wk =   0.0151515
        k(    9) = (   0.0816327   0.0471306   0.0000000), wk =   0.0151515
        k(   10) = (   0.0918367   0.0530220   0.0000000), wk =   0.0151515
        k(   11) = (   0.1020408   0.0589133   0.0000000), wk =   0.0151515
        k(   12) = (   0.1122449   0.0648046   0.0000000), wk =   0.0151515
        k(   13) = (   0.1224490   0.0706960   0.0000000), wk =   0.0151515
        k(   14) = (   0.1326531   0.0765873   0.0000000), wk =   0.0151515
        k(   15) = (   0.1428571   0.0824786   0.0000000), wk =   0.0151515
        k(   16) = (   0.1530612   0.0883699   0.0000000), wk =   0.0151515
        k(   17) = (   0.1632653   0.0942613   0.0000000), wk =   0.0151515
        k(   18) = (   0.1734694   0.1001526   0.0000000), wk =   0.0151515
        k(   19) = (   0.1836735   0.1060439   0.0000000), wk =   0.0151515
        k(   20) = (   0.1938776   0.1119353   0.0000000), wk =   0.0151515
        k(   21) = (   0.2040816   0.1178266   0.0000000), wk =   0.0151515
        k(   22) = (   0.2142857   0.1237179   0.0000000), wk =   0.0151515
        k(   23) = (   0.2244898   0.1296092   0.0000000), wk =   0.0151515
        k(   24) = (   0.2346939   0.1355006   0.0000000), wk =   0.0151515
        k(   25) = (   0.2448980   0.1413919   0.0000000), wk =   0.0151515
        k(   26) = (   0.2551020   0.1472832   0.0000000), wk =   0.0151515
        k(   27) = (   0.2653061   0.1531746   0.0000000), wk =   0.0151515
        k(   28) = (   0.2755102   0.1590659   0.0000000), wk =   0.0151515
        k(   29) = (   0.2857143   0.1649572   0.0000000), wk =   0.0151515
        k(   30) = (   0.2959184   0.1708485   0.0000000), wk =   0.0151515
        k(   31) = (   0.3061224   0.1767399   0.0000000), wk =   0.0151515
        k(   32) = (   0.3163265   0.1826312   0.0000000), wk =   0.0151515
        k(   33) = (   0.3265306   0.1885225   0.0000000), wk =   0.0151515
        k(   34) = (   0.3367347   0.1944139   0.0000000), wk =   0.0151515
        k(   35) = (   0.3469388   0.2003052   0.0000000), wk =   0.0151515
        k(   36) = (   0.3571429   0.2061965   0.0000000), wk =   0.0151515
        k(   37) = (   0.3673469   0.2120879   0.0000000), wk =   0.0151515
        k(   38) = (   0.3775510   0.2179792   0.0000000), wk =   0.0151515
        k(   39) = (   0.3877551   0.2238705   0.0000000), wk =   0.0151515
        k(   40) = (   0.3979592   0.2297618   0.0000000), wk =   0.0151515
        k(   41) = (   0.4081633   0.2356532   0.0000000), wk =   0.0151515
        k(   42) = (   0.4183673   0.2415445   0.0000000), wk =   0.0151515
        k(   43) = (   0.4285714   0.2474358   0.0000000), wk =   0.0151515
        k(   44) = (   0.4387755   0.2533272   0.0000000), wk =   0.0151515
        k(   45) = (   0.4489796   0.2592185   0.0000000), wk =   0.0151515
        k(   46) = (   0.4591837   0.2651098   0.0000000), wk =   0.0151515
        k(   47) = (   0.4693878   0.2710011   0.0000000), wk =   0.0151515
        k(   48) = (   0.4795918   0.2768925   0.0000000), wk =   0.0151515
        k(   49) = (   0.4897959   0.2827838   0.0000000), wk =   0.0151515
        k(   50) = (   0.5000000   0.2886751   0.0000000), wk =   0.0151515
        k(   51) = (   0.4953704   0.2966939   0.0000000), wk =   0.0151515
        k(   52) = (   0.4907407   0.3047126   0.0000000), wk =   0.0151515
        k(   53) = (   0.4861111   0.3127314   0.0000000), wk =   0.0151515
        k(   54) = (   0.4814815   0.3207501   0.0000000), wk =   0.0151515
        k(   55) = (   0.4768519   0.3287689   0.0000000), wk =   0.0151515
        k(   56) = (   0.4722222   0.3367877   0.0000000), wk =   0.0151515
        k(   57) = (   0.4675926   0.3448064   0.0000000), wk =   0.0151515
        k(   58) = (   0.4629630   0.3528252   0.0000000), wk =   0.0151515
        k(   59) = (   0.4583333   0.3608439   0.0000000), wk =   0.0151515
        k(   60) = (   0.4537037   0.3688627   0.0000000), wk =   0.0151515
        k(   61) = (   0.4490741   0.3768814   0.0000000), wk =   0.0151515
        k(   62) = (   0.4444444   0.3849002   0.0000000), wk =   0.0151515
        k(   63) = (   0.4398148   0.3929189   0.0000000), wk =   0.0151515
        k(   64) = (   0.4351852   0.4009377   0.0000000), wk =   0.0151515
        k(   65) = (   0.4305556   0.4089564   0.0000000), wk =   0.0151515
        k(   66) = (   0.4259259   0.4169752   0.0000000), wk =   0.0151515
        k(   67) = (   0.4212963   0.4249939   0.0000000), wk =   0.0151515
        k(   68) = (   0.4166667   0.4330127   0.0000000), wk =   0.0151515
        k(   69) = (   0.4120370   0.4410315   0.0000000), wk =   0.0151515
        k(   70) = (   0.4074074   0.4490502   0.0000000), wk =   0.0151515
        k(   71) = (   0.4027778   0.4570690   0.0000000), wk =   0.0151515
        k(   72) = (   0.3981481   0.4650877   0.0000000), wk =   0.0151515
        k(   73) = (   0.3935185   0.4731065   0.0000000), wk =   0.0151515
        k(   74) = (   0.3888889   0.4811252   0.0000000), wk =   0.0151515
        k(   75) = (   0.3842593   0.4891440   0.0000000), wk =   0.0151515
        k(   76) = (   0.3796296   0.4971627   0.0000000), wk =   0.0151515
        k(   77) = (   0.3750000   0.5051815   0.0000000), wk =   0.0151515
        k(   78) = (   0.3703704   0.5132002   0.0000000), wk =   0.0151515
        k(   79) = (   0.3657407   0.5212190   0.0000000), wk =   0.0151515
        k(   80) = (   0.3611111   0.5292377   0.0000000), wk =   0.0151515
        k(   81) = (   0.3564815   0.5372565   0.0000000), wk =   0.0151515
        k(   82) = (   0.3518519   0.5452753   0.0000000), wk =   0.0151515
        k(   83) = (   0.3472222   0.5532940   0.0000000), wk =   0.0151515
        k(   84) = (   0.3425926   0.5613128   0.0000000), wk =   0.0151515
        k(   85) = (   0.3379630   0.5693315   0.0000000), wk =   0.0151515
        k(   86) = (   0.3333333   0.5773503   0.0000000), wk =   0.0151515
        k(   87) = (   0.3260870   0.5647992   0.0000000), wk =   0.0151515
        k(   88) = (   0.3188406   0.5522481   0.0000000), wk =   0.0151515
        k(   89) = (   0.3115942   0.5396970   0.0000000), wk =   0.0151515
        k(   90) = (   0.3043478   0.5271459   0.0000000), wk =   0.0151515
        k(   91) = (   0.2971014   0.5145948   0.0000000), wk =   0.0151515
        k(   92) = (   0.2898551   0.5020437   0.0000000), wk =   0.0151515
        k(   93) = (   0.2826087   0.4894926   0.0000000), wk =   0.0151515
        k(   94) = (   0.2753623   0.4769415   0.0000000), wk =   0.0151515
        k(   95) = (   0.2681159   0.4643904   0.0000000), wk =   0.0151515
        k(   96) = (   0.2608696   0.4518393   0.0000000), wk =   0.0151515
        k(   97) = (   0.2536232   0.4392882   0.0000000), wk =   0.0151515
        k(   98) = (   0.2463768   0.4267372   0.0000000), wk =   0.0151515
        k(   99) = (   0.2391304   0.4141861   0.0000000), wk =   0.0151515
        k(  100) = (   0.2318841   0.4016350   0.0000000), wk =   0.0151515
        k(  101) = (   0.2246377   0.3890839   0.0000000), wk =   0.0151515
        k(  102) = (   0.2173913   0.3765328   0.0000000), wk =   0.0151515
        k(  103) = (   0.2101449   0.3639817   0.0000000), wk =   0.0151515
        k(  104) = (   0.2028986   0.3514306   0.0000000), wk =   0.0151515
        k(  105) = (   0.1956522   0.3388795   0.0000000), wk =   0.0151515
        k(  106) = (   0.1884058   0.3263284   0.0000000), wk =   0.0151515
        k(  107) = (   0.1811594   0.3137773   0.0000000), wk =   0.0151515
        k(  108) = (   0.1739130   0.3012262   0.0000000), wk =   0.0151515
        k(  109) = (   0.1666667   0.2886751   0.0000000), wk =   0.0151515
        k(  110) = (   0.1594203   0.2761240   0.0000000), wk =   0.0151515
        k(  111) = (   0.1521739   0.2635729   0.0000000), wk =   0.0151515
        k(  112) = (   0.1449275   0.2510219   0.0000000), wk =   0.0151515
        k(  113) = (   0.1376812   0.2384708   0.0000000), wk =   0.0151515
        k(  114) = (   0.1304348   0.2259197   0.0000000), wk =   0.0151515
        k(  115) = (   0.1231884   0.2133686   0.0000000), wk =   0.0151515
        k(  116) = (   0.1159420   0.2008175   0.0000000), wk =   0.0151515
        k(  117) = (   0.1086957   0.1882664   0.0000000), wk =   0.0151515
        k(  118) = (   0.1014493   0.1757153   0.0000000), wk =   0.0151515
        k(  119) = (   0.0942029   0.1631642   0.0000000), wk =   0.0151515
        k(  120) = (   0.0869565   0.1506131   0.0000000), wk =   0.0151515
        k(  121) = (   0.0797101   0.1380620   0.0000000), wk =   0.0151515
        k(  122) = (   0.0724638   0.1255109   0.0000000), wk =   0.0151515
        k(  123) = (   0.0652174   0.1129598   0.0000000), wk =   0.0151515
        k(  124) = (   0.0579710   0.1004087   0.0000000), wk =   0.0151515
        k(  125) = (   0.0507246   0.0878576   0.0000000), wk =   0.0151515
        k(  126) = (   0.0434783   0.0753066   0.0000000), wk =   0.0151515
        k(  127) = (   0.0362319   0.0627555   0.0000000), wk =   0.0151515
        k(  128) = (   0.0289855   0.0502044   0.0000000), wk =   0.0151515
        k(  129) = (   0.0217391   0.0376533   0.0000000), wk =   0.0151515
        k(  130) = (   0.0144928   0.0251022   0.0000000), wk =   0.0151515
        k(  131) = (   0.0072464   0.0125511   0.0000000), wk =   0.0151515
        k(  132) = (   0.0000000   0.0000000   0.0000000), wk =   0.0151515

                       cryst. coord.
        k(    1) = (   0.0000000   0.0000000   0.0000000), wk =   0.0151515
        k(    2) = (   0.0102041   0.0000000   0.0000000), wk =   0.0151515
        k(    3) = (   0.0204082   0.0000000   0.0000000), wk =   0.0151515
        k(    4) = (   0.0306122  -0.0000000   0.0000000), wk =   0.0151515
        k(    5) = (   0.0408163   0.0000000   0.0000000), wk =   0.0151515
        k(    6) = (   0.0510204   0.0000000   0.0000000), wk =   0.0151515
        k(    7) = (   0.0612245  -0.0000000   0.0000000), wk =   0.0151515
        k(    8) = (   0.0714286   0.0000000   0.0000000), wk =   0.0151515
        k(    9) = (   0.0816327   0.0000000   0.0000000), wk =   0.0151515
        k(   10) = (   0.0918367   0.0000000   0.0000000), wk =   0.0151515
        k(   11) = (   0.1020408   0.0000000   0.0000000), wk =   0.0151515
        k(   12) = (   0.1122449  -0.0000000   0.0000000), wk =   0.0151515
        k(   13) = (   0.1224490  -0.0000000   0.0000000), wk =   0.0151515
        k(   14) = (   0.1326531   0.0000000   0.0000000), wk =   0.0151515
        k(   15) = (   0.1428571   0.0000000   0.0000000), wk =   0.0151515
        k(   16) = (   0.1530612   0.0000000   0.0000000), wk =   0.0151515
        k(   17) = (   0.1632653   0.0000000   0.0000000), wk =   0.0151515
        k(   18) = (   0.1734694   0.0000000   0.0000000), wk =   0.0151515
        k(   19) = (   0.1836735   0.0000000   0.0000000), wk =   0.0151515
        k(   20) = (   0.1938776   0.0000000   0.0000000), wk =   0.0151515
        k(   21) = (   0.2040816   0.0000000   0.0000000), wk =   0.0151515
        k(   22) = (   0.2142857   0.0000000   0.0000000), wk =   0.0151515
        k(   23) = (   0.2244898   0.0000000   0.0000000), wk =   0.0151515
        k(   24) = (   0.2346939   0.0000000   0.0000000), wk =   0.0151515
        k(   25) = (   0.2448980  -0.0000000   0.0000000), wk =   0.0151515
        k(   26) = (   0.2551020   0.0000000   0.0000000), wk =   0.0151515
        k(   27) = (   0.2653061   0.0000000   0.0000000), wk =   0.0151515
        k(   28) = (   0.2755102   0.0000000   0.0000000), wk =   0.0151515
        k(   29) = (   0.2857143   0.0000000   0.0000000), wk =   0.0151515
        k(   30) = (   0.2959184   0.0000000   0.0000000), wk =   0.0151515
        k(   31) = (   0.3061224   0.0000000   0.0000000), wk =   0.0151515
        k(   32) = (   0.3163265   0.0000000   0.0000000), wk =   0.0151515
        k(   33) = (   0.3265306   0.0000000   0.0000000), wk =   0.0151515
        k(   34) = (   0.3367347   0.0000000   0.0000000), wk =   0.0151515
        k(   35) = (   0.3469388   0.0000000   0.0000000), wk =   0.0151515
        k(   36) = (   0.3571429   0.0000000   0.0000000), wk =   0.0151515
        k(   37) = (   0.3673469   0.0000000   0.0000000), wk =   0.0151515
        k(   38) = (   0.3775510   0.0000000   0.0000000), wk =   0.0151515
        k(   39) = (   0.3877551   0.0000000   0.0000000), wk =   0.0151515
        k(   40) = (   0.3979592   0.0000000   0.0000000), wk =   0.0151515
        k(   41) = (   0.4081633   0.0000000   0.0000000), wk =   0.0151515
        k(   42) = (   0.4183673   0.0000000   0.0000000), wk =   0.0151515
        k(   43) = (   0.4285714   0.0000000   0.0000000), wk =   0.0151515
        k(   44) = (   0.4387755   0.0000000   0.0000000), wk =   0.0151515
        k(   45) = (   0.4489796   0.0000000   0.0000000), wk =   0.0151515
        k(   46) = (   0.4591837   0.0000000   0.0000000), wk =   0.0151515
        k(   47) = (   0.4693878   0.0000000   0.0000000), wk =   0.0151515
        k(   48) = (   0.4795918   0.0000000   0.0000000), wk =   0.0151515
        k(   49) = (   0.4897959  -0.0000000   0.0000000), wk =   0.0151515
        k(   50) = (   0.5000000   0.0000000   0.0000000), wk =   0.0151515
        k(   51) = (   0.4953704   0.0092593   0.0000000), wk =   0.0151515
        k(   52) = (   0.4907407   0.0185185   0.0000000), wk =   0.0151515
        k(   53) = (   0.4861111   0.0277778   0.0000000), wk =   0.0151515
        k(   54) = (   0.4814815   0.0370370   0.0000000), wk =   0.0151515
        k(   55) = (   0.4768519   0.0462963   0.0000000), wk =   0.0151515
        k(   56) = (   0.4722222   0.0555556   0.0000000), wk =   0.0151515
        k(   57) = (   0.4675926   0.0648148   0.0000000), wk =   0.0151515
        k(   58) = (   0.4629630   0.0740741   0.0000000), wk =   0.0151515
        k(   59) = (   0.4583333   0.0833333   0.0000000), wk =   0.0151515
        k(   60) = (   0.4537037   0.0925926   0.0000000), wk =   0.0151515
        k(   61) = (   0.4490741   0.1018519   0.0000000), wk =   0.0151515
        k(   62) = (   0.4444444   0.1111111   0.0000000), wk =   0.0151515
        k(   63) = (   0.4398148   0.1203704   0.0000000), wk =   0.0151515
        k(   64) = (   0.4351852   0.1296296   0.0000000), wk =   0.0151515
        k(   65) = (   0.4305556   0.1388889   0.0000000), wk =   0.0151515
        k(   66) = (   0.4259259   0.1481481   0.0000000), wk =   0.0151515
        k(   67) = (   0.4212963   0.1574074   0.0000000), wk =   0.0151515
        k(   68) = (   0.4166667   0.1666667   0.0000000), wk =   0.0151515
        k(   69) = (   0.4120370   0.1759259   0.0000000), wk =   0.0151515
        k(   70) = (   0.4074074   0.1851852   0.0000000), wk =   0.0151515
        k(   71) = (   0.4027778   0.1944444   0.0000000), wk =   0.0151515
        k(   72) = (   0.3981481   0.2037037   0.0000000), wk =   0.0151515
        k(   73) = (   0.3935185   0.2129630   0.0000000), wk =   0.0151515
        k(   74) = (   0.3888889   0.2222222   0.0000000), wk =   0.0151515
        k(   75) = (   0.3842593   0.2314815   0.0000000), wk =   0.0151515
        k(   76) = (   0.3796296   0.2407407   0.0000000), wk =   0.0151515
        k(   77) = (   0.3750000   0.2500000   0.0000000), wk =   0.0151515
        k(   78) = (   0.3703704   0.2592593   0.0000000), wk =   0.0151515
        k(   79) = (   0.3657407   0.2685185   0.0000000), wk =   0.0151515
        k(   80) = (   0.3611111   0.2777778   0.0000000), wk =   0.0151515
        k(   81) = (   0.3564815   0.2870370   0.0000000), wk =   0.0151515
        k(   82) = (   0.3518519   0.2962963   0.0000000), wk =   0.0151515
        k(   83) = (   0.3472222   0.3055556   0.0000000), wk =   0.0151515
        k(   84) = (   0.3425926   0.3148148   0.0000000), wk =   0.0151515
        k(   85) = (   0.3379630   0.3240741   0.0000000), wk =   0.0151515
        k(   86) = (   0.3333333   0.3333333   0.0000000), wk =   0.0151515
        k(   87) = (   0.3260870   0.3260870   0.0000000), wk =   0.0151515
        k(   88) = (   0.3188406   0.3188406   0.0000000), wk =   0.0151515
        k(   89) = (   0.3115942   0.3115942   0.0000000), wk =   0.0151515
        k(   90) = (   0.3043478   0.3043478   0.0000000), wk =   0.0151515
        k(   91) = (   0.2971014   0.2971014   0.0000000), wk =   0.0151515
        k(   92) = (   0.2898551   0.2898551   0.0000000), wk =   0.0151515
        k(   93) = (   0.2826087   0.2826087   0.0000000), wk =   0.0151515
        k(   94) = (   0.2753623   0.2753623   0.0000000), wk =   0.0151515
        k(   95) = (   0.2681159   0.2681159   0.0000000), wk =   0.0151515
        k(   96) = (   0.2608696   0.2608696   0.0000000), wk =   0.0151515
        k(   97) = (   0.2536232   0.2536232   0.0000000), wk =   0.0151515
        k(   98) = (   0.2463768   0.2463768   0.0000000), wk =   0.0151515
        k(   99) = (   0.2391304   0.2391304   0.0000000), wk =   0.0151515
        k(  100) = (   0.2318841   0.2318841   0.0000000), wk =   0.0151515
        k(  101) = (   0.2246377   0.2246377   0.0000000), wk =   0.0151515
        k(  102) = (   0.2173913   0.2173913   0.0000000), wk =   0.0151515
        k(  103) = (   0.2101449   0.2101449   0.0000000), wk =   0.0151515
        k(  104) = (   0.2028986   0.2028986   0.0000000), wk =   0.0151515
        k(  105) = (   0.1956522   0.1956522   0.0000000), wk =   0.0151515
        k(  106) = (   0.1884058   0.1884058   0.0000000), wk =   0.0151515
        k(  107) = (   0.1811594   0.1811594   0.0000000), wk =   0.0151515
        k(  108) = (   0.1739130   0.1739130   0.0000000), wk =   0.0151515
        k(  109) = (   0.1666667   0.1666667   0.0000000), wk =   0.0151515
        k(  110) = (   0.1594203   0.1594203   0.0000000), wk =   0.0151515
        k(  111) = (   0.1521739   0.1521739   0.0000000), wk =   0.0151515
        k(  112) = (   0.1449275   0.1449275   0.0000000), wk =   0.0151515
        k(  113) = (   0.1376812   0.1376812   0.0000000), wk =   0.0151515
        k(  114) = (   0.1304348   0.1304348   0.0000000), wk =   0.0151515
        k(  115) = (   0.1231884   0.1231884   0.0000000), wk =   0.0151515
        k(  116) = (   0.1159420   0.1159420   0.0000000), wk =   0.0151515
        k(  117) = (   0.1086957   0.1086957   0.0000000), wk =   0.0151515
        k(  118) = (   0.1014493   0.1014493   0.0000000), wk =   0.0151515
        k(  119) = (   0.0942029   0.0942029   0.0000000), wk =   0.0151515
        k(  120) = (   0.0869565   0.0869565   0.0000000), wk =   0.0151515
        k(  121) = (   0.0797101   0.0797101   0.0000000), wk =   0.0151515
        k(  122) = (   0.0724638   0.0724638   0.0000000), wk =   0.0151515
        k(  123) = (   0.0652174   0.0652174   0.0000000), wk =   0.0151515
        k(  124) = (   0.0579710   0.0579710   0.0000000), wk =   0.0151515
        k(  125) = (   0.0507246   0.0507246   0.0000000), wk =   0.0151515
        k(  126) = (   0.0434783   0.0434783   0.0000000), wk =   0.0151515
        k(  127) = (   0.0362319   0.0362319   0.0000000), wk =   0.0151515
        k(  128) = (   0.0289855   0.0289855   0.0000000), wk =   0.0151515
        k(  129) = (   0.0217391   0.0217391   0.0000000), wk =   0.0151515
        k(  130) = (   0.0144928   0.0144928   0.0000000), wk =   0.0151515
        k(  131) = (   0.0072464   0.0072464   0.0000000), wk =   0.0151515
        k(  132) = (   0.0000000   0.0000000   0.0000000), wk =   0.0151515

     Dense  grid:    95959 G-vectors     FFT dimensions: (  30,  30, 243)

     Smooth grid:    34059 G-vectors     FFT dimensions: (  24,  24, 180)

     Largest allocated arrays     est. size (Mb)     dimensions
        Kohn-Sham Wavefunctions         0.52 Mb     (    4280,    8)
        NL pseudopotentials             1.04 Mb     (    4280,   16)
        Each V/rho on FFT grid          3.34 Mb     (  218700)
        Each G-vector array             0.73 Mb     (   95959)
        G-vector shells                 0.04 Mb     (    4760)
     Largest temporary arrays     est. size (Mb)     dimensions
        Each subspace H/S matrix        0.00 Mb     (       8,    8)
        Each <psi_i|beta_j> matrix      0.00 Mb     (      16,    8)

     The potential is recalculated from file :
     ./out/aiida.save/charge-density.xml


     negative rho (up, down):  2.312E-04 0.000E+00
     Starting wfc are    8 randomized atomic wfcs

     Band Structure Calculation
     CG style diagonalization

     Computing kpt #:     1
     total cpu time spent up to now is        3.5 secs

     Computing kpt #:     2
     total cpu time spent up to now is        4.6 secs

     ethr =  2.50E-11,  avg # of iterations = 31.5

     total cpu time spent up to now is        4.6 secs

     End of band structure calculation

          k = 0.0000 0.0000 0.0000 (  4189 PWs)   bands (ev):

   -23.7514 -11.8680  -7.2996  -7.2996  -1.0146  -0.3105   0.4853   0.9555

          k = 0.0102 0.0059 0.0000 (  4197 PWs)   bands (ev):

   -23.7490 -11.8650  -7.3098  -7.3050  -1.0112  -0.3071   0.4887   0.9588

          k = 0.0204 0.0118 0.0000 (  4209 PWs)   bands (ev):

   -23.7416 -11.8562  -7.3405  -7.3213  -1.0012  -0.2969   0.4989   0.9690

          k = 0.0306 0.0177 0.0000 (  4209 PWs)   bands (ev):

   -23.7293 -11.8415  -7.3913  -7.3481  -0.9845  -0.2799   0.5159   0.9859

          k = 0.0408 0.0236 0.0000 (  4203 PWs)   bands (ev):

   -23.7121 -11.8209  -7.4617  -7.3852  -0.9611  -0.2562   0.5397   1.0096

          k = 0.0510 0.0295 0.0000 (  4223 PWs)   bands (ev):

   -23.6900 -11.7945  -7.5511  -7.4321  -0.9310  -0.2257   0.5703   1.0400

          k = 0.0612 0.0353 0.0000 (  4223 PWs)   bands (ev):

   -23.6630 -11.7622  -7.6586  -7.4882  -0.8942  -0.1884   0.6077   1.0773

          k = 0.0714 0.0412 0.0000 (  4231 PWs)   bands (ev):

   -23.6311 -11.7241  -7.7833  -7.5528  -0.8507  -0.1443   0.6519   1.1212

          k = 0.0816 0.0471 0.0000 (  4239 PWs)   bands (ev):

   -23.5942 -11.6801  -7.9243  -7.6252  -0.8006  -0.0934   0.7029   1.1719

          k = 0.0918 0.0530 0.0000 (  4243 PWs)   bands (ev):

   -23.5525 -11.6303  -8.0804  -7.7047  -0.7437  -0.0358   0.7607   1.2294

          k = 0.1020 0.0589 0.0000 (  4239 PWs)   bands (ev):

   -23.5059 -11.5748  -8.2505  -7.7904  -0.6802   0.0286   0.8253   1.2936

          k = 0.1122 0.0648 0.0000 (  4241 PWs)   bands (ev):

   -23.4545 -11.5134  -8.4336  -7.8817  -0.6100   0.0998   0.8968   1.3646

          k = 0.1224 0.0707 0.0000 (  4245 PWs)   bands (ev):

   -23.3981 -11.4464  -8.6285  -7.9777  -0.5331   0.1777   0.9750   1.4423

          k = 0.1327 0.0766 0.0000 (  4239 PWs)   bands (ev):

   -23.3370 -11.3736  -8.8342  -8.0776  -0.4495   0.2624   1.0600   1.5267

          k = 0.1429 0.0825 0.0000 (  4257 PWs)   bands (ev):

   -23.2709 -11.2951  -9.0497  -8.1807  -0.3592   0.3538   1.1518   1.6178

          k = 0.1531 0.0884 0.0000 (  4249 PWs)   bands (ev):

   -23.2000 -11.2111  -9.2738  -8.2864  -0.2623   0.4519   1.2504   1.7156

          k = 0.1633 0.0943 0.0000 (  4251 PWs)   bands (ev):

   -23.1243 -11.1214  -9.5057  -8.3940  -0.1587   0.5568   1.3559   1.8201

          k = 0.1735 0.1002 0.0000 (  4259 PWs)   bands (ev):

   -23.0438 -11.0261  -9.7446  -8.5029  -0.0484   0.6684   1.4681   1.9312

          k = 0.1837 0.1060 0.0000 (  4257 PWs)   bands (ev):

   -22.9585 -10.9254  -9.9895  -8.6125   0.0685   0.7866   1.5870   2.0489

          k = 0.1939 0.1119 0.0000 (  4259 PWs)   bands (ev):

   -22.8684 -10.8192 -10.2397  -8.7223   0.1921   0.9114   1.7128   2.1730

          k = 0.2041 0.1178 0.0000 (  4253 PWs)   bands (ev):

   -22.7736 -10.7076 -10.4944  -8.8318   0.3223   1.0428   1.8453   2.3034

          k = 0.2143 0.1237 0.0000 (  4241 PWs)   bands (ev):

   -22.6740 -10.7531 -10.5907  -8.9405   0.4591   1.1807   1.9846   2.4398

          k = 0.2245 0.1296 0.0000 (  4231 PWs)   bands (ev):

   -22.5697 -11.0149 -10.4687  -9.0481   0.6026   1.3249   2.1306   2.5812

          k = 0.2347 0.1355 0.0000 (  4225 PWs)   bands (ev):

   -22.4607 -11.2795 -10.3414  -9.1541   0.7526   1.4751   2.2833   2.7245

          k = 0.2449 0.1414 0.0000 (  4231 PWs)   bands (ev):

   -22.3470 -11.5462 -10.2092  -9.2583   0.9092   1.6307   2.4427   2.8506

          k = 0.2551 0.1473 0.0000 (  4235 PWs)   bands (ev):

   -22.2287 -11.8145 -10.0720  -9.3602   1.0724   1.7899   2.6086   2.8019

          k = 0.2653 0.1532 0.0000 (  4243 PWs)   bands (ev):

   -22.1057 -12.0839  -9.9301  -9.4597   1.2421   1.9462   2.5729   2.7810

          k = 0.2755 0.1591 0.0000 (  4249 PWs)   bands (ev):

   -21.9782 -12.3541  -9.7835  -9.5565   1.4183   2.0537   2.3715   2.9594

          k = 0.2857 0.1650 0.0000 (  4251 PWs)   bands (ev):

   -21.8461 -12.6246  -9.6502  -9.6325   1.6010   1.9270   2.4043   3.1428

          k = 0.2959 0.1708 0.0000 (  4261 PWs)   bands (ev):

   -21.7096 -12.8950  -9.7408  -9.4772   1.6722   1.7900   2.5690   3.3273

          k = 0.3061 0.1767 0.0000 (  4261 PWs)   bands (ev):

   -21.5685 -13.1650  -9.8280  -9.3178   1.3976   1.9853   2.7589   3.4828

          k = 0.3163 0.1826 0.0000 (  4269 PWs)   bands (ev):

   -21.4230 -13.4343  -9.9115  -9.1547   1.1182   2.1866   2.9601   3.5126

          k = 0.3265 0.1885 0.0000 (  4267 PWs)   bands (ev):

   -21.2732 -13.7025  -9.9914  -8.9882   0.8377   2.3937   3.1699   3.4900

          k = 0.3367 0.1944 0.0000 (  4263 PWs)   bands (ev):

   -21.1191 -13.9693 -10.0674  -8.8186   0.5577   2.6058   3.3871   3.4622

          k = 0.3469 0.2003 0.0000 (  4263 PWs)   bands (ev):

   -20.9608 -14.2345 -10.1393  -8.6463   0.2797   2.8211   3.4368   3.6114

          k = 0.3571 0.2062 0.0000 (  4263 PWs)   bands (ev):

   -20.7983 -14.4977 -10.2071  -8.4719   0.0046   3.0331   3.4218   3.8425

          k = 0.3673 0.2121 0.0000 (  4253 PWs)   bands (ev):

   -20.6319 -14.7587 -10.2706  -8.2960  -0.2664   3.2087   3.4509   4.0804

          k = 0.3776 0.2180 0.0000 (  4257 PWs)   bands (ev):

   -20.4616 -15.0171 -10.3298  -8.1194  -0.5323   3.2706   3.6016   4.3248

          k = 0.3878 0.2239 0.0000 (  4263 PWs)   bands (ev):

   -20.2875 -15.2727 -10.3846  -7.9430  -0.7919   3.2674   3.8255   4.5756

          k = 0.3980 0.2298 0.0000 (  4259 PWs)   bands (ev):

   -20.1100 -15.5251 -10.4348  -7.7681  -1.0436   3.2512   4.0706   4.8329

          k = 0.4082 0.2357 0.0000 (  4257 PWs)   bands (ev):

   -19.9294 -15.7738 -10.4805  -7.5959  -1.2859   3.2327   4.3264   5.0965

          k = 0.4184 0.2415 0.0000 (  4259 PWs)   bands (ev):

   -19.7460 -16.0184 -10.5215  -7.4283  -1.5167   3.2144   4.5901   5.3663

          k = 0.4286 0.2474 0.0000 (  4257 PWs)   bands (ev):

   -19.5605 -16.2581 -10.5578  -7.2675  -1.7337   3.1976   4.8607   5.6421

          k = 0.4388 0.2533 0.0000 (  4269 PWs)   bands (ev):

   -19.3740 -16.4918 -10.5894  -7.1162  -1.9341   3.1825   5.1379   5.9239

          k = 0.4490 0.2592 0.0000 (  4267 PWs)   bands (ev):

   -19.1879 -16.7178 -10.6161  -6.9776  -2.1144   3.1695   5.4211   6.2114

          k = 0.4592 0.2651 0.0000 (  4274 PWs)   bands (ev):

   -19.0051 -16.9334 -10.6381  -6.8554  -2.2708   3.1587   5.7101   6.5044

          k = 0.4694 0.2710 0.0000 (  4276 PWs)   bands (ev):

   -18.8309 -17.1332 -10.6552  -6.7540  -2.3990   3.1502   6.0046   6.8024

          k = 0.4796 0.2769 0.0000 (  4276 PWs)   bands (ev):

   -18.6756 -17.3067 -10.6674  -6.6775  -2.4946   3.1441   6.3039   7.1044

          k = 0.4898 0.2828 0.0000 (  4268 PWs)   bands (ev):

   -18.5597 -17.4336 -10.6748  -6.6298  -2.5539   3.1405   6.6057   7.2492

          k = 0.5000 0.2887 0.0000 (  4268 PWs)   bands (ev):

   -18.5147 -17.4822 -10.6772  -6.6135  -2.5740   3.1392   6.8512   6.9991

          k = 0.4954 0.2967 0.0000 (  4274 PWs)   bands (ev):

   -18.5134 -17.4809 -10.6841  -6.6117  -2.5744   3.1485   6.8530   7.0010

          k = 0.4907 0.3047 0.0000 (  4266 PWs)   bands (ev):

   -18.5095 -17.4771 -10.7046  -6.6061  -2.5757   3.1762   6.8584   7.0068

          k = 0.4861 0.3127 0.0000 (  4260 PWs)   bands (ev):

   -18.5030 -17.4706 -10.7386  -6.5969  -2.5779   3.2222   6.8674   7.0163

          k = 0.4815 0.3208 0.0000 (  4274 PWs)   bands (ev):

   -18.4939 -17.4616 -10.7858  -6.5839  -2.5811   3.2862   6.8799   7.0297

          k = 0.4769 0.3288 0.0000 (  4270 PWs)   bands (ev):

   -18.4822 -17.4500 -10.8457  -6.5673  -2.5853   3.3676   6.8960   7.0469

          k = 0.4722 0.3368 0.0000 (  4280 PWs)   bands (ev):

   -18.4679 -17.4359 -10.9179  -6.5470  -2.5906   3.4660   6.9156   7.0678

          k = 0.4676 0.3448 0.0000 (  4268 PWs)   bands (ev):

   -18.4510 -17.4193 -11.0018  -6.5229  -2.5971   3.5807   6.9388   7.0926

          k = 0.4630 0.3528 0.0000 (  4270 PWs)   bands (ev):

   -18.4316 -17.4002 -11.0967  -6.4952  -2.6050   3.7110   6.9654   7.1211

          k = 0.4583 0.3608 0.0000 (  4266 PWs)   bands (ev):

   -18.4095 -17.3786 -11.2018  -6.4638  -2.6145   3.8560   6.9955   7.1533

          k = 0.4537 0.3689 0.0000 (  4272 PWs)   bands (ev):

   -18.3848 -17.3546 -11.3166  -6.4287  -2.6256   4.0151   7.0291   7.1893

          k = 0.4491 0.3769 0.0000 (  4270 PWs)   bands (ev):

   -18.3575 -17.3283 -11.4402  -6.3900  -2.6386   4.1872   7.0660   7.2290

          k = 0.4444 0.3849 0.0000 (  4266 PWs)   bands (ev):

   -18.3276 -17.2996 -11.5718  -6.3476  -2.6537   4.3715   7.1063   7.2724

          k = 0.4398 0.3929 0.0000 (  4252 PWs)   bands (ev):

   -18.2951 -17.2687 -11.7107  -6.3015  -2.6711   4.5671   7.1498   7.3194

          k = 0.4352 0.4009 0.0000 (  4250 PWs)   bands (ev):

   -18.2601 -17.2356 -11.8561  -6.2517  -2.6911   4.7731   7.1965   7.3700

          k = 0.4306 0.4090 0.0000 (  4246 PWs)   bands (ev):

   -18.2224 -17.2004 -12.0072  -6.1983  -2.7139   4.9884   7.2464   7.4242

          k = 0.4259 0.4170 0.0000 (  4252 PWs)   bands (ev):

   -18.1822 -17.1632 -12.1634  -6.1413  -2.7399   5.2122   7.2993   7.4725

          k = 0.4213 0.4250 0.0000 (  4252 PWs)   bands (ev):

   -18.1393 -17.1242 -12.3238  -6.0806  -2.7691   5.4433   7.3552   7.4161

          k = 0.4167 0.4330 0.0000 (  4240 PWs)   bands (ev):

   -18.0939 -17.0836 -12.4877  -6.0163  -2.8021   5.6807   7.3522   7.4138

          k = 0.4120 0.4410 0.0000 (  4244 PWs)   bands (ev):

   -18.0459 -17.0414 -12.6545  -5.9484  -2.8389   5.9234   7.2821   7.4752

          k = 0.4074 0.4491 0.0000 (  4248 PWs)   bands (ev):

   -17.9953 -16.9980 -12.8233  -5.8769  -2.8800   6.1701   7.2071   7.5391

          k = 0.4028 0.4571 0.0000 (  4244 PWs)   bands (ev):

   -17.9422 -16.9536 -12.9934  -5.8018  -2.9255   6.4194   7.1287   7.6053

          k = 0.3981 0.4651 0.0000 (  4232 PWs)   bands (ev):

   -17.8864 -16.9086 -13.1641  -5.7231  -2.9759   6.6698   7.0485   7.6737

          k = 0.3935 0.4731 0.0000 (  4236 PWs)   bands (ev):

   -17.8281 -16.8635 -13.3344  -5.6409  -3.0312   6.9194   6.9682   7.7440

          k = 0.3889 0.4811 0.0000 (  4234 PWs)   bands (ev):

   -17.7673 -16.8187 -13.5035  -5.5551  -3.0917   6.8892   7.1659   7.8159

          k = 0.3843 0.4891 0.0000 (  4248 PWs)   bands (ev):

   -17.7038 -16.7751 -13.6702  -5.4657  -3.1576   6.8128   7.4063   7.8891

          k = 0.3796 0.4972 0.0000 (  4242 PWs)   bands (ev):

   -17.6378 -16.7336 -13.8333  -5.3728  -3.2291   6.7403   7.6362   7.9632

          k = 0.3750 0.5052 0.0000 (  4241 PWs)   bands (ev):

   -17.5692 -16.6954 -13.9914  -5.2764  -3.3062   6.6727   7.8497   8.0378

          k = 0.3704 0.5132 0.0000 (  4237 PWs)   bands (ev):

   -17.4981 -16.6618 -14.1427  -5.1766  -3.3891   6.6109   8.0397   8.1123

          k = 0.3657 0.5212 0.0000 (  4237 PWs)   bands (ev):

   -17.4244 -16.6350 -14.2851  -5.0732  -3.4778   6.5554   8.1863   8.2001

          k = 0.3611 0.5292 0.0000 (  4237 PWs)   bands (ev):

   -17.3482 -16.6171 -14.4160  -4.9664  -3.5723   6.5070   8.2591   8.3309

          k = 0.3565 0.5373 0.0000 (  4237 PWs)   bands (ev):

   -17.2694 -16.6109 -14.5325  -4.8562  -3.6725   6.4659   8.3300   8.4370

          k = 0.3519 0.5453 0.0000 (  4227 PWs)   bands (ev):

   -17.1881 -16.6192 -14.6315  -4.7425  -3.7783   6.4325   8.3981   8.5229

          k = 0.3472 0.5533 0.0000 (  4235 PWs)   bands (ev):

   -17.1043 -16.6448 -14.7104  -4.6255  -3.8896   6.4067   8.4628   8.5897

          k = 0.3426 0.5613 0.0000 (  4243 PWs)   bands (ev):

   -17.0179 -16.6895 -14.7668  -4.5050  -4.0062   6.3886   8.5230   8.6343

          k = 0.3380 0.5693 0.0000 (  4243 PWs)   bands (ev):

   -16.9290 -16.7540 -14.8001  -4.3813  -4.1278   6.3780   8.5779   8.6498

          k = 0.3333 0.5774 0.0000 (  4239 PWs)   bands (ev):

   -16.8377 -16.8377 -14.8109  -4.2542  -4.2542   6.3746   8.6267   8.6267

          k = 0.3261 0.5648 0.0000 (  4239 PWs)   bands (ev):

   -17.0021 -16.6896 -14.7870  -4.4610  -4.0487   6.3824   8.4971   8.6891

          k = 0.3188 0.5522 0.0000 (  4223 PWs)   bands (ev):

   -17.1985 -16.5354 -14.7222  -4.6777  -3.8353   6.4037   8.2646   8.7327

          k = 0.3116 0.5397 0.0000 (  4213 PWs)   bands (ev):

   -17.4168 -16.3752 -14.6260  -4.9031  -3.6140   6.4345   7.9652   8.7565

          k = 0.3043 0.5271 0.0000 (  4219 PWs)   bands (ev):

   -17.6493 -16.2090 -14.5062  -5.1357  -3.3851   6.4685   7.6292   8.7608

          k = 0.2971 0.5146 0.0000 (  4225 PWs)   bands (ev):

   -17.8902 -16.0368 -14.3681  -5.3744  -3.1486   6.4964   7.2747   8.6386

          k = 0.2899 0.5020 0.0000 (  4223 PWs)   bands (ev):

   -18.1356 -15.8586 -14.2157  -5.6178  -2.9048   6.5043   6.9122   8.2913

          k = 0.2826 0.4895 0.0000 (  4219 PWs)   bands (ev):

   -18.3827 -15.6746 -14.0516  -5.8648  -2.6538   6.4729   6.5477   7.9771

          k = 0.2754 0.4769 0.0000 (  4221 PWs)   bands (ev):

   -18.6296 -15.4848 -13.8777  -6.1141  -2.3958   6.1851   6.3813   7.6994

          k = 0.2681 0.4644 0.0000 (  4235 PWs)   bands (ev):

   -18.8748 -15.2892 -13.6954  -6.3647  -2.1310   5.8266   6.2189   7.4479

          k = 0.2609 0.4518 0.0000 (  4235 PWs)   bands (ev):

   -19.1173 -15.0880 -13.5058  -6.6156  -1.8596   5.4738   5.9944   7.1363

          k = 0.2536 0.4393 0.0000 (  4235 PWs)   bands (ev):

   -19.3563 -14.8812 -13.3098  -6.8658  -1.5819   5.1278   5.7282   6.7755

          k = 0.2464 0.4267 0.0000 (  4231 PWs)   bands (ev):

   -19.5911 -14.6690 -13.1081  -7.1146  -1.2981   4.7894   5.4392   6.4239

          k = 0.2391 0.4142 0.0000 (  4231 PWs)   bands (ev):

   -19.8214 -14.4514 -12.9013  -7.3612  -1.0086   4.4591   5.1400   6.0817

          k = 0.2319 0.4016 0.0000 (  4231 PWs)   bands (ev):

   -20.0466 -14.2285 -12.6901  -7.6048  -0.7136   4.1373   4.8381   5.7492

          k = 0.2246 0.3891 0.0000 (  4231 PWs)   bands (ev):

   -20.2665 -14.0006 -12.4748  -7.8449  -0.4136   3.8243   4.5379   5.4266

          k = 0.2174 0.3765 0.0000 (  4231 PWs)   bands (ev):

   -20.4807 -13.7677 -12.2562  -8.0809  -0.1089   3.5204   4.2423   5.1138

          k = 0.2101 0.3640 0.0000 (  4239 PWs)   bands (ev):

   -20.6892 -13.5301 -12.0346  -8.3123   0.2001   3.2258   3.9529   4.8112

          k = 0.2029 0.3514 0.0000 (  4239 PWs)   bands (ev):

   -20.8915 -13.2879 -11.8106  -8.5386   0.5129   2.9405   3.6709   4.5185

          k = 0.1957 0.3389 0.0000 (  4227 PWs)   bands (ev):

   -21.0877 -13.0413 -11.5847  -8.7594   0.8290   2.6649   3.3969   4.2361

          k = 0.1884 0.3263 0.0000 (  4231 PWs)   bands (ev):

   -21.2775 -12.7907 -11.3574  -8.9744   1.1479   2.3988   3.1315   3.9637

          k = 0.1812 0.3138 0.0000 (  4235 PWs)   bands (ev):

   -21.4608 -12.5362 -11.1294  -9.1832   1.4689   2.1424   2.8751   3.7015

          k = 0.1739 0.3012 0.0000 (  4225 PWs)   bands (ev):

   -21.6376 -12.2782 -10.9011  -9.3855   1.7914   1.8959   2.6279   3.4496

          k = 0.1667 0.2887 0.0000 (  4219 PWs)   bands (ev):

   -21.8076 -12.0171 -10.6732  -9.5811   1.6591   2.1146   2.3902   3.2078

          k = 0.1594 0.2761 0.0000 (  4237 PWs)   bands (ev):

   -21.9709 -11.7532 -10.4464  -9.7697   1.4323   2.1621   2.4379   2.9763

          k = 0.1522 0.2636 0.0000 (  4237 PWs)   bands (ev):

   -22.1273 -11.4871 -10.2213  -9.9510   1.2154   1.9438   2.7551   2.7603

          k = 0.1449 0.2510 0.0000 (  4231 PWs)   bands (ev):

   -22.2769 -11.2192 -10.1250  -9.9986   1.0084   1.7353   2.5441   2.9945

          k = 0.1377 0.2385 0.0000 (  4237 PWs)   bands (ev):

   -22.4194 -10.9501 -10.2913  -9.7790   0.8114   1.5367   2.3434   2.7967

          k = 0.1304 0.2259 0.0000 (  4245 PWs)   bands (ev):

   -22.5549 -10.6806 -10.4499  -9.5634   0.6244   1.3480   2.1529   2.6088

          k = 0.1232 0.2134 0.0000 (  4245 PWs)   bands (ev):

   -22.6833 -10.6007 -10.4114  -9.3525   0.4475   1.1694   1.9728   2.4308

          k = 0.1159 0.2008 0.0000 (  4239 PWs)   bands (ev):

   -22.8045 -10.7433 -10.1433  -9.1472   0.2807   1.0008   1.8029   2.2628

          k = 0.1087 0.1883 0.0000 (  4239 PWs)   bands (ev):

   -22.9186 -10.8779  -9.8774  -8.9483   0.1239   0.8424   1.6433   2.1049

          k = 0.1014 0.1757 0.0000 (  4239 PWs)   bands (ev):

   -23.0255 -11.0042  -9.6147  -8.7566  -0.0228   0.6941   1.4940   1.9571

          k = 0.0942 0.1632 0.0000 (  4251 PWs)   bands (ev):

   -23.1251 -11.1221  -9.3567  -8.5731  -0.1595   0.5559   1.3550   1.8193

          k = 0.0870 0.1506 0.0000 (  4243 PWs)   bands (ev):

   -23.2175 -11.2317  -9.1047  -8.3987  -0.2860   0.4279   1.2263   1.6917

          k = 0.0797 0.1381 0.0000 (  4249 PWs)   bands (ev):

   -23.3026 -11.3327  -8.8604  -8.2343  -0.4023   0.3101   1.1079   1.5743

          k = 0.0725 0.1255 0.0000 (  4251 PWs)   bands (ev):

   -23.3803 -11.4251  -8.6256  -8.0806  -0.5086   0.2024   0.9998   1.4670

          k = 0.0652 0.1130 0.0000 (  4251 PWs)   bands (ev):

   -23.4507 -11.5089  -8.4023  -7.9386  -0.6048   0.1050   0.9020   1.3698

          k = 0.0580 0.1004 0.0000 (  4243 PWs)   bands (ev):

   -23.5137 -11.5840  -8.1928  -7.8091  -0.6908   0.0179   0.8146   1.2829

          k = 0.0507 0.0879 0.0000 (  4235 PWs)   bands (ev):

   -23.5694 -11.6504  -7.9993  -7.6929  -0.7667  -0.0591   0.7374   1.2062

          k = 0.0435 0.0753 0.0000 (  4237 PWs)   bands (ev):

   -23.6176 -11.7080  -7.8245  -7.5906  -0.8325  -0.1257   0.6705   1.1397

          k = 0.0362 0.0628 0.0000 (  4233 PWs)   bands (ev):

   -23.6585 -11.7569  -7.6709  -7.5029  -0.8881  -0.1822   0.6139   1.0834

          k = 0.0290 0.0502 0.0000 (  4215 PWs)   bands (ev):

   -23.6919 -11.7968  -7.5410  -7.4304  -0.9336  -0.2284   0.5676   1.0374

          k = 0.0217 0.0377 0.0000 (  4209 PWs)   bands (ev):

   -23.7180 -11.8279  -7.4371  -7.3734  -0.9690  -0.2643   0.5316   1.0015

          k = 0.0145 0.0251 0.0000 (  4209 PWs)   bands (ev):

   -23.7365 -11.8502  -7.3613  -7.3325  -0.9943  -0.2899   0.5058   0.9759

          k = 0.0072 0.0126 0.0000 (  4205 PWs)   bands (ev):

   -23.7477 -11.8635  -7.3151  -7.3078  -1.0095  -0.3053   0.4904   0.9606

          k = 0.0000 0.0000 0.0000 (  4189 PWs)   bands (ev):

   -23.7514 -11.8680  -7.2996  -7.2996  -1.0146  -0.3105   0.4853   0.9555

     Writing output data file aiida.save
 
     init_run     :      1.63s CPU      1.80s WALL (       1 calls)
     electrons    :      2.39s CPU      2.47s WALL (       1 calls)

     Called by init_run:
     wfcinit      :      0.00s CPU      0.04s WALL (       1 calls)
     potinit      :      1.26s CPU      1.31s WALL (       1 calls)

     Called by electrons:
     c_bands      :      2.39s CPU      2.47s WALL (       1 calls)
     v_of_rho     :      0.12s CPU      0.13s WALL (       1 calls)
     v_h          :      0.01s CPU      0.01s WALL (       1 calls)
     v_xc         :      0.11s CPU      0.12s WALL (       1 calls)
     newd         :      0.13s CPU      0.14s WALL (       1 calls)

     Called by c_bands:
     init_us_2    :      0.00s CPU      0.00s WALL (       2 calls)
     ccgdiagg     :      1.47s CPU      1.47s WALL (       4 calls)
     wfcrot       :      0.09s CPU      0.10s WALL (       4 calls)

     Called by sum_band:

     Called by *cgdiagg:
     h_psi        :      1.41s CPU      1.41s WALL (     418 calls)
     s_psi        :      0.05s CPU      0.05s WALL (     832 calls)
     cdiaghg      :      0.00s CPU      0.01s WALL (       4 calls)

     Called by h_psi:
     h_psi:vloc   :      1.32s CPU      1.31s WALL (     418 calls)
     h_psi:vnl    :      0.08s CPU      0.10s WALL (     418 calls)
     add_vuspsi   :      0.04s CPU      0.04s WALL (     418 calls)

     General routines
     calbec       :      0.06s CPU      0.08s WALL (     832 calls)
     fft          :      0.17s CPU      0.17s WALL (      13 calls)
     ffts         :      0.00s CPU      0.00s WALL (       1 calls)
     fftw         :      1.06s CPU      1.09s WALL (     892 calls)
     interpolate  :      0.01s CPU      0.01s WALL (       1 calls)
     davcio       :      0.00s CPU      0.00s WALL (       2 calls)
 
     Parallel routines
     fft_scatter  :      0.10s CPU      0.10s WALL (     906 calls)
 
     PWSCF        :     4.35s CPU         8.50s WALL

 
   This run was terminated on:  23:49:45   5Jan2017            

=------------------------------------------------------------------------------=
   JOB DONE.
=------------------------------------------------------------------------------=
