
     Program PWSCF v.5.1 starts on  6Jan2017 at  6:33:30 

     This program is part of the open-source Quantum ESPRESSO suite
     for quantum simulation of materials; please cite
         "P. Giannozzi et al., J. Phys.:Condens. Matter 21 395502 (2009);
          URL http://www.quantum-espresso.org", 
     in publications or presentations arising from this work. More details at
     http://www.quantum-espresso.org/quote

     Parallel version (MPI), running on    66 processors
     K-points division:     npool     =      66
     Reading input from aiida.in

     Current dimensions of program PWSCF are:
     Max number of different atomic species (ntypx) = 10
     Max number of k-points (npk) =  40000
     Max angular momentum in pseudopotentials (lmaxx) =  3

     Atomic positions and unit cell read from directory:
     ./out/aiida.save/
 
               file B.pbe-n-kjpaw_psl.0.1.UPF: wavefunction(s)  2P renormalized

     Subspace diagonalization in iterative solution of the eigenvalue problem:
     a serial algorithm will be used

 
     G-vector sticks info
     --------------------
     sticks:   dense  smooth     PW     G-vecs:    dense   smooth      PW
     Sum         673     349    109               114601    40619    7131
 
 ----2D----2D----2D----2D----2D----2D
 THE CODE IS RUNNING WITH 2D CUTOFF
 ----2D----2D----2D----2D----2D----2D


     bravais-lattice index     =            0
     lattice parameter (alat)  =       4.7419  a.u.
     unit-cell volume          =     735.9740 (a.u.)^3
     number of atoms/cell      =            2
     number of atomic types    =            2
     number of electrons       =         8.00
     number of Kohn-Sham states=            8
     kinetic-energy cutoff     =      55.0000  Ry
     charge density cutoff     =     440.0000  Ry
     Exchange-correlation      = PBE ( 1  4  3  4 0 0)

     celldm(1)=   4.741890  celldm(2)=   0.000000  celldm(3)=   0.000000
     celldm(4)=   0.000000  celldm(5)=   0.000000  celldm(6)=   0.000000

     crystal axes: (cart. coord. in units of alat)
               a(1) = (   1.000000   0.000000   0.000000 )  
               a(2) = (  -0.500000   0.866025   0.000000 )  
               a(3) = (   0.000000   0.000000   7.970350 )  

     reciprocal axes: (cart. coord. in units 2 pi/alat)
               b(1) = (  1.000000  0.577350  0.000000 )  
               b(2) = (  0.000000  1.154701  0.000000 )  
               b(3) = (  0.000000  0.000000  0.125465 )  


     PseudoPot. # 1 for  B read from file:
     ./pseudo/B.pbe-n-kjpaw_psl.0.1.UPF
     MD5 check sum: b4345a612e0782cca08559f453f3313f
     Pseudo is Projector augmented-wave + core cor, Zval =  3.0
     Generated using "atomic" code by A. Dal Corso  v.5.0.99 svn rev. 10869
     Shape of augmentation charge: BESSEL
     Using radial grid of 1059 points,  4 beta functions with: 
                l(1) =   0
                l(2) =   0
                l(3) =   1
                l(4) =   1
     Q(r) pseudized with 0 coefficients 


     PseudoPot. # 2 for  N read from file:
     ./pseudo/N.pbe.theos.UPF
     MD5 check sum: 1fde47ee573fe9ed3106b9b4217eb757
     Pseudo is Ultrasoft + core correction, Zval =  5.0
     Generated using "atomic" code by A. Dal Corso  v.5.1
     Using radial grid of 1085 points,  4 beta functions with: 
                l(1) =   0
                l(2) =   0
                l(3) =   1
                l(4) =   1
     Q(r) pseudized with 0 coefficients 


     atomic species   valence    mass     pseudopotential
        B              3.00    10.81100      B( 1.00)
        N              5.00    14.00670      N( 1.00)

     12 Sym. Ops. (no inversion) found


                                    s                        frac. trans.

      isym =  1     identity                                     

 cryst.   s( 1) = (     1          0          0      )
                  (     0          1          0      )
                  (     0          0          1      )

 cart.    s( 1) = (  1.0000000  0.0000000  0.0000000 )
                  (  0.0000000  1.0000000  0.0000000 )
                  (  0.0000000  0.0000000  1.0000000 )


      isym =  2     180 deg rotation - cart. axis [0,1,0]        

 cryst.   s( 2) = (    -1          0          0      )
                  (     1          1          0      )
                  (     0          0         -1      )

 cart.    s( 2) = ( -1.0000000  0.0000000  0.0000000 )
                  (  0.0000000  1.0000000  0.0000000 )
                  (  0.0000000  0.0000000 -1.0000000 )


      isym =  3     120 deg rotation - cryst. axis [0,0,1]       

 cryst.   s( 3) = (     0          1          0      )
                  (    -1         -1          0      )
                  (     0          0          1      )

 cart.    s( 3) = ( -0.5000000 -0.8660254  0.0000000 )
                  (  0.8660254 -0.5000000  0.0000000 )
                  (  0.0000000  0.0000000  1.0000000 )


      isym =  4     120 deg rotation - cryst. axis [0,0,-1]      

 cryst.   s( 4) = (    -1         -1          0      )
                  (     1          0          0      )
                  (     0          0          1      )

 cart.    s( 4) = ( -0.5000000  0.8660254  0.0000000 )
                  ( -0.8660254 -0.5000000  0.0000000 )
                  (  0.0000000  0.0000000  1.0000000 )


      isym =  5     180 deg rotation - cryst. axis [1,-1,0]      

 cryst.   s( 5) = (     0         -1          0      )
                  (    -1          0          0      )
                  (     0          0         -1      )

 cart.    s( 5) = (  0.5000000 -0.8660254  0.0000000 )
                  ( -0.8660254 -0.5000000  0.0000000 )
                  (  0.0000000  0.0000000 -1.0000000 )


      isym =  6     180 deg rotation - cryst. axis [2,1,0]       

 cryst.   s( 6) = (     1          1          0      )
                  (     0         -1          0      )
                  (     0          0         -1      )

 cart.    s( 6) = (  0.5000000  0.8660254  0.0000000 )
                  (  0.8660254 -0.5000000  0.0000000 )
                  (  0.0000000  0.0000000 -1.0000000 )


      isym =  7     inv. 180 deg rotation - cart. axis [0,0,1]   

 cryst.   s( 7) = (     1          0          0      )
                  (     0          1          0      )
                  (     0          0         -1      )

 cart.    s( 7) = (  1.0000000  0.0000000  0.0000000 )
                  (  0.0000000  1.0000000  0.0000000 )
                  (  0.0000000  0.0000000 -1.0000000 )


      isym =  8     inv. 180 deg rotation - cart. axis [1,0,0]   

 cryst.   s( 8) = (    -1          0          0      )
                  (     1          1          0      )
                  (     0          0          1      )

 cart.    s( 8) = ( -1.0000000  0.0000000  0.0000000 )
                  (  0.0000000  1.0000000  0.0000000 )
                  (  0.0000000  0.0000000  1.0000000 )


      isym =  9     inv.  60 deg rotation - cryst. axis [0,0,1]  

 cryst.   s( 9) = (    -1         -1          0      )
                  (     1          0          0      )
                  (     0          0         -1      )

 cart.    s( 9) = ( -0.5000000  0.8660254  0.0000000 )
                  ( -0.8660254 -0.5000000  0.0000000 )
                  (  0.0000000  0.0000000 -1.0000000 )


      isym = 10     inv.  60 deg rotation - cryst. axis [0,0,-1] 

 cryst.   s(10) = (     0          1          0      )
                  (    -1         -1          0      )
                  (     0          0         -1      )

 cart.    s(10) = ( -0.5000000 -0.8660254  0.0000000 )
                  (  0.8660254 -0.5000000  0.0000000 )
                  (  0.0000000  0.0000000 -1.0000000 )


      isym = 11     inv. 180 deg rotation - cryst. axis [0,1,0]  

 cryst.   s(11) = (     1          1          0      )
                  (     0         -1          0      )
                  (     0          0          1      )

 cart.    s(11) = (  0.5000000  0.8660254  0.0000000 )
                  (  0.8660254 -0.5000000  0.0000000 )
                  (  0.0000000  0.0000000  1.0000000 )


      isym = 12     inv. 180 deg rotation - cryst. axis [1,1,0]  

 cryst.   s(12) = (     0         -1          0      )
                  (    -1          0          0      )
                  (     0          0          1      )

 cart.    s(12) = (  0.5000000 -0.8660254  0.0000000 )
                  ( -0.8660254 -0.5000000  0.0000000 )
                  (  0.0000000  0.0000000  1.0000000 )


   Cartesian axes

     site n.     atom                  positions (alat units)
         1           B   tau(   1) = (   0.0000000   0.5773503   3.9851749  )
         2           N   tau(   2) = (   0.5000000   0.2886751   3.9851749  )

   Crystallographic axes

     site n.     atom                  positions (cryst. coord.)
         1           B   tau(   1) = (  0.3333333  0.6666667  0.5000000  )
         2           N   tau(   2) = (  0.6666667  0.3333333  0.5000000  )

     number of k points=   132  Marzari-Vanderbilt smearing, width (Ry)=  0.0200
                       cart. coord. in units 2pi/alat
        k(    1) = (   0.0000000   0.0000000   0.0000000), wk =   0.0151515
        k(    2) = (   0.0102041   0.0058913   0.0000000), wk =   0.0151515
        k(    3) = (   0.0204082   0.0117827   0.0000000), wk =   0.0151515
        k(    4) = (   0.0306122   0.0176740   0.0000000), wk =   0.0151515
        k(    5) = (   0.0408163   0.0235653   0.0000000), wk =   0.0151515
        k(    6) = (   0.0510204   0.0294566   0.0000000), wk =   0.0151515
        k(    7) = (   0.0612245   0.0353480   0.0000000), wk =   0.0151515
        k(    8) = (   0.0714286   0.0412393   0.0000000), wk =   0.0151515
        k(    9) = (   0.0816327   0.0471306   0.0000000), wk =   0.0151515
        k(   10) = (   0.0918367   0.0530220   0.0000000), wk =   0.0151515
        k(   11) = (   0.1020408   0.0589133   0.0000000), wk =   0.0151515
        k(   12) = (   0.1122449   0.0648046   0.0000000), wk =   0.0151515
        k(   13) = (   0.1224490   0.0706960   0.0000000), wk =   0.0151515
        k(   14) = (   0.1326531   0.0765873   0.0000000), wk =   0.0151515
        k(   15) = (   0.1428571   0.0824786   0.0000000), wk =   0.0151515
        k(   16) = (   0.1530612   0.0883699   0.0000000), wk =   0.0151515
        k(   17) = (   0.1632653   0.0942613   0.0000000), wk =   0.0151515
        k(   18) = (   0.1734694   0.1001526   0.0000000), wk =   0.0151515
        k(   19) = (   0.1836735   0.1060439   0.0000000), wk =   0.0151515
        k(   20) = (   0.1938776   0.1119353   0.0000000), wk =   0.0151515
        k(   21) = (   0.2040816   0.1178266   0.0000000), wk =   0.0151515
        k(   22) = (   0.2142857   0.1237179   0.0000000), wk =   0.0151515
        k(   23) = (   0.2244898   0.1296092   0.0000000), wk =   0.0151515
        k(   24) = (   0.2346939   0.1355006   0.0000000), wk =   0.0151515
        k(   25) = (   0.2448980   0.1413919   0.0000000), wk =   0.0151515
        k(   26) = (   0.2551020   0.1472832   0.0000000), wk =   0.0151515
        k(   27) = (   0.2653061   0.1531746   0.0000000), wk =   0.0151515
        k(   28) = (   0.2755102   0.1590659   0.0000000), wk =   0.0151515
        k(   29) = (   0.2857143   0.1649572   0.0000000), wk =   0.0151515
        k(   30) = (   0.2959184   0.1708485   0.0000000), wk =   0.0151515
        k(   31) = (   0.3061224   0.1767399   0.0000000), wk =   0.0151515
        k(   32) = (   0.3163265   0.1826312   0.0000000), wk =   0.0151515
        k(   33) = (   0.3265306   0.1885225   0.0000000), wk =   0.0151515
        k(   34) = (   0.3367347   0.1944139   0.0000000), wk =   0.0151515
        k(   35) = (   0.3469388   0.2003052   0.0000000), wk =   0.0151515
        k(   36) = (   0.3571429   0.2061965   0.0000000), wk =   0.0151515
        k(   37) = (   0.3673469   0.2120879   0.0000000), wk =   0.0151515
        k(   38) = (   0.3775510   0.2179792   0.0000000), wk =   0.0151515
        k(   39) = (   0.3877551   0.2238705   0.0000000), wk =   0.0151515
        k(   40) = (   0.3979592   0.2297618   0.0000000), wk =   0.0151515
        k(   41) = (   0.4081633   0.2356532   0.0000000), wk =   0.0151515
        k(   42) = (   0.4183673   0.2415445   0.0000000), wk =   0.0151515
        k(   43) = (   0.4285714   0.2474358   0.0000000), wk =   0.0151515
        k(   44) = (   0.4387755   0.2533272   0.0000000), wk =   0.0151515
        k(   45) = (   0.4489796   0.2592185   0.0000000), wk =   0.0151515
        k(   46) = (   0.4591837   0.2651098   0.0000000), wk =   0.0151515
        k(   47) = (   0.4693878   0.2710011   0.0000000), wk =   0.0151515
        k(   48) = (   0.4795918   0.2768925   0.0000000), wk =   0.0151515
        k(   49) = (   0.4897959   0.2827838   0.0000000), wk =   0.0151515
        k(   50) = (   0.5000000   0.2886751   0.0000000), wk =   0.0151515
        k(   51) = (   0.4953704   0.2966939   0.0000000), wk =   0.0151515
        k(   52) = (   0.4907407   0.3047126   0.0000000), wk =   0.0151515
        k(   53) = (   0.4861111   0.3127314   0.0000000), wk =   0.0151515
        k(   54) = (   0.4814815   0.3207501   0.0000000), wk =   0.0151515
        k(   55) = (   0.4768519   0.3287689   0.0000000), wk =   0.0151515
        k(   56) = (   0.4722222   0.3367877   0.0000000), wk =   0.0151515
        k(   57) = (   0.4675926   0.3448064   0.0000000), wk =   0.0151515
        k(   58) = (   0.4629630   0.3528252   0.0000000), wk =   0.0151515
        k(   59) = (   0.4583333   0.3608439   0.0000000), wk =   0.0151515
        k(   60) = (   0.4537037   0.3688627   0.0000000), wk =   0.0151515
        k(   61) = (   0.4490741   0.3768814   0.0000000), wk =   0.0151515
        k(   62) = (   0.4444444   0.3849002   0.0000000), wk =   0.0151515
        k(   63) = (   0.4398148   0.3929189   0.0000000), wk =   0.0151515
        k(   64) = (   0.4351852   0.4009377   0.0000000), wk =   0.0151515
        k(   65) = (   0.4305556   0.4089564   0.0000000), wk =   0.0151515
        k(   66) = (   0.4259259   0.4169752   0.0000000), wk =   0.0151515
        k(   67) = (   0.4212963   0.4249939   0.0000000), wk =   0.0151515
        k(   68) = (   0.4166667   0.4330127   0.0000000), wk =   0.0151515
        k(   69) = (   0.4120370   0.4410315   0.0000000), wk =   0.0151515
        k(   70) = (   0.4074074   0.4490502   0.0000000), wk =   0.0151515
        k(   71) = (   0.4027778   0.4570690   0.0000000), wk =   0.0151515
        k(   72) = (   0.3981481   0.4650877   0.0000000), wk =   0.0151515
        k(   73) = (   0.3935185   0.4731065   0.0000000), wk =   0.0151515
        k(   74) = (   0.3888889   0.4811252   0.0000000), wk =   0.0151515
        k(   75) = (   0.3842593   0.4891440   0.0000000), wk =   0.0151515
        k(   76) = (   0.3796296   0.4971627   0.0000000), wk =   0.0151515
        k(   77) = (   0.3750000   0.5051815   0.0000000), wk =   0.0151515
        k(   78) = (   0.3703704   0.5132002   0.0000000), wk =   0.0151515
        k(   79) = (   0.3657407   0.5212190   0.0000000), wk =   0.0151515
        k(   80) = (   0.3611111   0.5292377   0.0000000), wk =   0.0151515
        k(   81) = (   0.3564815   0.5372565   0.0000000), wk =   0.0151515
        k(   82) = (   0.3518519   0.5452753   0.0000000), wk =   0.0151515
        k(   83) = (   0.3472222   0.5532940   0.0000000), wk =   0.0151515
        k(   84) = (   0.3425926   0.5613128   0.0000000), wk =   0.0151515
        k(   85) = (   0.3379630   0.5693315   0.0000000), wk =   0.0151515
        k(   86) = (   0.3333333   0.5773503   0.0000000), wk =   0.0151515
        k(   87) = (   0.3260870   0.5647992   0.0000000), wk =   0.0151515
        k(   88) = (   0.3188406   0.5522481   0.0000000), wk =   0.0151515
        k(   89) = (   0.3115942   0.5396970   0.0000000), wk =   0.0151515
        k(   90) = (   0.3043478   0.5271459   0.0000000), wk =   0.0151515
        k(   91) = (   0.2971014   0.5145948   0.0000000), wk =   0.0151515
        k(   92) = (   0.2898551   0.5020437   0.0000000), wk =   0.0151515
        k(   93) = (   0.2826087   0.4894926   0.0000000), wk =   0.0151515
        k(   94) = (   0.2753623   0.4769415   0.0000000), wk =   0.0151515
        k(   95) = (   0.2681159   0.4643904   0.0000000), wk =   0.0151515
        k(   96) = (   0.2608696   0.4518393   0.0000000), wk =   0.0151515
        k(   97) = (   0.2536232   0.4392882   0.0000000), wk =   0.0151515
        k(   98) = (   0.2463768   0.4267372   0.0000000), wk =   0.0151515
        k(   99) = (   0.2391304   0.4141861   0.0000000), wk =   0.0151515
        k(  100) = (   0.2318841   0.4016350   0.0000000), wk =   0.0151515
        k(  101) = (   0.2246377   0.3890839   0.0000000), wk =   0.0151515
        k(  102) = (   0.2173913   0.3765328   0.0000000), wk =   0.0151515
        k(  103) = (   0.2101449   0.3639817   0.0000000), wk =   0.0151515
        k(  104) = (   0.2028986   0.3514306   0.0000000), wk =   0.0151515
        k(  105) = (   0.1956522   0.3388795   0.0000000), wk =   0.0151515
        k(  106) = (   0.1884058   0.3263284   0.0000000), wk =   0.0151515
        k(  107) = (   0.1811594   0.3137773   0.0000000), wk =   0.0151515
        k(  108) = (   0.1739130   0.3012262   0.0000000), wk =   0.0151515
        k(  109) = (   0.1666667   0.2886751   0.0000000), wk =   0.0151515
        k(  110) = (   0.1594203   0.2761240   0.0000000), wk =   0.0151515
        k(  111) = (   0.1521739   0.2635729   0.0000000), wk =   0.0151515
        k(  112) = (   0.1449275   0.2510219   0.0000000), wk =   0.0151515
        k(  113) = (   0.1376812   0.2384708   0.0000000), wk =   0.0151515
        k(  114) = (   0.1304348   0.2259197   0.0000000), wk =   0.0151515
        k(  115) = (   0.1231884   0.2133686   0.0000000), wk =   0.0151515
        k(  116) = (   0.1159420   0.2008175   0.0000000), wk =   0.0151515
        k(  117) = (   0.1086957   0.1882664   0.0000000), wk =   0.0151515
        k(  118) = (   0.1014493   0.1757153   0.0000000), wk =   0.0151515
        k(  119) = (   0.0942029   0.1631642   0.0000000), wk =   0.0151515
        k(  120) = (   0.0869565   0.1506131   0.0000000), wk =   0.0151515
        k(  121) = (   0.0797101   0.1380620   0.0000000), wk =   0.0151515
        k(  122) = (   0.0724638   0.1255109   0.0000000), wk =   0.0151515
        k(  123) = (   0.0652174   0.1129598   0.0000000), wk =   0.0151515
        k(  124) = (   0.0579710   0.1004087   0.0000000), wk =   0.0151515
        k(  125) = (   0.0507246   0.0878576   0.0000000), wk =   0.0151515
        k(  126) = (   0.0434783   0.0753066   0.0000000), wk =   0.0151515
        k(  127) = (   0.0362319   0.0627555   0.0000000), wk =   0.0151515
        k(  128) = (   0.0289855   0.0502044   0.0000000), wk =   0.0151515
        k(  129) = (   0.0217391   0.0376533   0.0000000), wk =   0.0151515
        k(  130) = (   0.0144928   0.0251022   0.0000000), wk =   0.0151515
        k(  131) = (   0.0072464   0.0125511   0.0000000), wk =   0.0151515
        k(  132) = (   0.0000000   0.0000000   0.0000000), wk =   0.0151515

                       cryst. coord.
        k(    1) = (   0.0000000   0.0000000   0.0000000), wk =   0.0151515
        k(    2) = (   0.0102041  -0.0000000   0.0000000), wk =   0.0151515
        k(    3) = (   0.0204082  -0.0000000   0.0000000), wk =   0.0151515
        k(    4) = (   0.0306122  -0.0000000   0.0000000), wk =   0.0151515
        k(    5) = (   0.0408163  -0.0000000   0.0000000), wk =   0.0151515
        k(    6) = (   0.0510204  -0.0000000   0.0000000), wk =   0.0151515
        k(    7) = (   0.0612245  -0.0000000   0.0000000), wk =   0.0151515
        k(    8) = (   0.0714286  -0.0000000   0.0000000), wk =   0.0151515
        k(    9) = (   0.0816327  -0.0000000   0.0000000), wk =   0.0151515
        k(   10) = (   0.0918367   0.0000000   0.0000000), wk =   0.0151515
        k(   11) = (   0.1020408  -0.0000000   0.0000000), wk =   0.0151515
        k(   12) = (   0.1122449  -0.0000000   0.0000000), wk =   0.0151515
        k(   13) = (   0.1224490  -0.0000000   0.0000000), wk =   0.0151515
        k(   14) = (   0.1326531  -0.0000000   0.0000000), wk =   0.0151515
        k(   15) = (   0.1428571  -0.0000000   0.0000000), wk =   0.0151515
        k(   16) = (   0.1530612  -0.0000000   0.0000000), wk =   0.0151515
        k(   17) = (   0.1632653  -0.0000000   0.0000000), wk =   0.0151515
        k(   18) = (   0.1734694  -0.0000000   0.0000000), wk =   0.0151515
        k(   19) = (   0.1836735   0.0000000   0.0000000), wk =   0.0151515
        k(   20) = (   0.1938776   0.0000000   0.0000000), wk =   0.0151515
        k(   21) = (   0.2040816  -0.0000000   0.0000000), wk =   0.0151515
        k(   22) = (   0.2142857   0.0000000   0.0000000), wk =   0.0151515
        k(   23) = (   0.2244898  -0.0000000   0.0000000), wk =   0.0151515
        k(   24) = (   0.2346939  -0.0000000   0.0000000), wk =   0.0151515
        k(   25) = (   0.2448980  -0.0000000   0.0000000), wk =   0.0151515
        k(   26) = (   0.2551020  -0.0000000   0.0000000), wk =   0.0151515
        k(   27) = (   0.2653061  -0.0000000   0.0000000), wk =   0.0151515
        k(   28) = (   0.2755102  -0.0000000   0.0000000), wk =   0.0151515
        k(   29) = (   0.2857143  -0.0000000   0.0000000), wk =   0.0151515
        k(   30) = (   0.2959184  -0.0000000   0.0000000), wk =   0.0151515
        k(   31) = (   0.3061224  -0.0000000   0.0000000), wk =   0.0151515
        k(   32) = (   0.3163265  -0.0000000   0.0000000), wk =   0.0151515
        k(   33) = (   0.3265306  -0.0000000   0.0000000), wk =   0.0151515
        k(   34) = (   0.3367347   0.0000000   0.0000000), wk =   0.0151515
        k(   35) = (   0.3469388   0.0000000   0.0000000), wk =   0.0151515
        k(   36) = (   0.3571429  -0.0000000   0.0000000), wk =   0.0151515
        k(   37) = (   0.3673469   0.0000000   0.0000000), wk =   0.0151515
        k(   38) = (   0.3775510  -0.0000000   0.0000000), wk =   0.0151515
        k(   39) = (   0.3877551   0.0000000   0.0000000), wk =   0.0151515
        k(   40) = (   0.3979592  -0.0000000   0.0000000), wk =   0.0151515
        k(   41) = (   0.4081633   0.0000000   0.0000000), wk =   0.0151515
        k(   42) = (   0.4183673  -0.0000000   0.0000000), wk =   0.0151515
        k(   43) = (   0.4285714   0.0000000   0.0000000), wk =   0.0151515
        k(   44) = (   0.4387755  -0.0000000   0.0000000), wk =   0.0151515
        k(   45) = (   0.4489796  -0.0000000   0.0000000), wk =   0.0151515
        k(   46) = (   0.4591837  -0.0000000   0.0000000), wk =   0.0151515
        k(   47) = (   0.4693878  -0.0000000   0.0000000), wk =   0.0151515
        k(   48) = (   0.4795918  -0.0000000   0.0000000), wk =   0.0151515
        k(   49) = (   0.4897959  -0.0000000   0.0000000), wk =   0.0151515
        k(   50) = (   0.5000000   0.0000000   0.0000000), wk =   0.0151515
        k(   51) = (   0.4953704   0.0092593   0.0000000), wk =   0.0151515
        k(   52) = (   0.4907407   0.0185185   0.0000000), wk =   0.0151515
        k(   53) = (   0.4861111   0.0277778   0.0000000), wk =   0.0151515
        k(   54) = (   0.4814815   0.0370370   0.0000000), wk =   0.0151515
        k(   55) = (   0.4768519   0.0462963   0.0000000), wk =   0.0151515
        k(   56) = (   0.4722222   0.0555556   0.0000000), wk =   0.0151515
        k(   57) = (   0.4675926   0.0648148   0.0000000), wk =   0.0151515
        k(   58) = (   0.4629630   0.0740741   0.0000000), wk =   0.0151515
        k(   59) = (   0.4583333   0.0833333   0.0000000), wk =   0.0151515
        k(   60) = (   0.4537037   0.0925926   0.0000000), wk =   0.0151515
        k(   61) = (   0.4490741   0.1018519   0.0000000), wk =   0.0151515
        k(   62) = (   0.4444444   0.1111111   0.0000000), wk =   0.0151515
        k(   63) = (   0.4398148   0.1203704   0.0000000), wk =   0.0151515
        k(   64) = (   0.4351852   0.1296296   0.0000000), wk =   0.0151515
        k(   65) = (   0.4305556   0.1388889   0.0000000), wk =   0.0151515
        k(   66) = (   0.4259259   0.1481481   0.0000000), wk =   0.0151515
        k(   67) = (   0.4212963   0.1574074   0.0000000), wk =   0.0151515
        k(   68) = (   0.4166667   0.1666667   0.0000000), wk =   0.0151515
        k(   69) = (   0.4120370   0.1759259   0.0000000), wk =   0.0151515
        k(   70) = (   0.4074074   0.1851852   0.0000000), wk =   0.0151515
        k(   71) = (   0.4027778   0.1944444   0.0000000), wk =   0.0151515
        k(   72) = (   0.3981481   0.2037037   0.0000000), wk =   0.0151515
        k(   73) = (   0.3935185   0.2129630   0.0000000), wk =   0.0151515
        k(   74) = (   0.3888889   0.2222222   0.0000000), wk =   0.0151515
        k(   75) = (   0.3842593   0.2314815   0.0000000), wk =   0.0151515
        k(   76) = (   0.3796296   0.2407407   0.0000000), wk =   0.0151515
        k(   77) = (   0.3750000   0.2500000   0.0000000), wk =   0.0151515
        k(   78) = (   0.3703704   0.2592593   0.0000000), wk =   0.0151515
        k(   79) = (   0.3657407   0.2685185   0.0000000), wk =   0.0151515
        k(   80) = (   0.3611111   0.2777778   0.0000000), wk =   0.0151515
        k(   81) = (   0.3564815   0.2870370   0.0000000), wk =   0.0151515
        k(   82) = (   0.3518519   0.2962963   0.0000000), wk =   0.0151515
        k(   83) = (   0.3472222   0.3055556   0.0000000), wk =   0.0151515
        k(   84) = (   0.3425926   0.3148148   0.0000000), wk =   0.0151515
        k(   85) = (   0.3379630   0.3240741   0.0000000), wk =   0.0151515
        k(   86) = (   0.3333333   0.3333333   0.0000000), wk =   0.0151515
        k(   87) = (   0.3260870   0.3260870   0.0000000), wk =   0.0151515
        k(   88) = (   0.3188406   0.3188406   0.0000000), wk =   0.0151515
        k(   89) = (   0.3115942   0.3115942   0.0000000), wk =   0.0151515
        k(   90) = (   0.3043478   0.3043478   0.0000000), wk =   0.0151515
        k(   91) = (   0.2971014   0.2971014   0.0000000), wk =   0.0151515
        k(   92) = (   0.2898551   0.2898551   0.0000000), wk =   0.0151515
        k(   93) = (   0.2826087   0.2826087   0.0000000), wk =   0.0151515
        k(   94) = (   0.2753623   0.2753623   0.0000000), wk =   0.0151515
        k(   95) = (   0.2681159   0.2681159   0.0000000), wk =   0.0151515
        k(   96) = (   0.2608696   0.2608696   0.0000000), wk =   0.0151515
        k(   97) = (   0.2536232   0.2536232   0.0000000), wk =   0.0151515
        k(   98) = (   0.2463768   0.2463768   0.0000000), wk =   0.0151515
        k(   99) = (   0.2391304   0.2391304   0.0000000), wk =   0.0151515
        k(  100) = (   0.2318841   0.2318841   0.0000000), wk =   0.0151515
        k(  101) = (   0.2246377   0.2246377   0.0000000), wk =   0.0151515
        k(  102) = (   0.2173913   0.2173913   0.0000000), wk =   0.0151515
        k(  103) = (   0.2101449   0.2101449   0.0000000), wk =   0.0151515
        k(  104) = (   0.2028986   0.2028986   0.0000000), wk =   0.0151515
        k(  105) = (   0.1956522   0.1956522   0.0000000), wk =   0.0151515
        k(  106) = (   0.1884058   0.1884058   0.0000000), wk =   0.0151515
        k(  107) = (   0.1811594   0.1811594   0.0000000), wk =   0.0151515
        k(  108) = (   0.1739130   0.1739130   0.0000000), wk =   0.0151515
        k(  109) = (   0.1666667   0.1666667   0.0000000), wk =   0.0151515
        k(  110) = (   0.1594203   0.1594203   0.0000000), wk =   0.0151515
        k(  111) = (   0.1521739   0.1521739   0.0000000), wk =   0.0151515
        k(  112) = (   0.1449275   0.1449275   0.0000000), wk =   0.0151515
        k(  113) = (   0.1376812   0.1376812   0.0000000), wk =   0.0151515
        k(  114) = (   0.1304348   0.1304348   0.0000000), wk =   0.0151515
        k(  115) = (   0.1231884   0.1231884   0.0000000), wk =   0.0151515
        k(  116) = (   0.1159420   0.1159420   0.0000000), wk =   0.0151515
        k(  117) = (   0.1086957   0.1086957   0.0000000), wk =   0.0151515
        k(  118) = (   0.1014493   0.1014493   0.0000000), wk =   0.0151515
        k(  119) = (   0.0942029   0.0942029   0.0000000), wk =   0.0151515
        k(  120) = (   0.0869565   0.0869565   0.0000000), wk =   0.0151515
        k(  121) = (   0.0797101   0.0797101   0.0000000), wk =   0.0151515
        k(  122) = (   0.0724638   0.0724638   0.0000000), wk =   0.0151515
        k(  123) = (   0.0652174   0.0652174   0.0000000), wk =   0.0151515
        k(  124) = (   0.0579710   0.0579710   0.0000000), wk =   0.0151515
        k(  125) = (   0.0507246   0.0507246   0.0000000), wk =   0.0151515
        k(  126) = (   0.0434783   0.0434783   0.0000000), wk =   0.0151515
        k(  127) = (   0.0362319   0.0362319   0.0000000), wk =   0.0151515
        k(  128) = (   0.0289855   0.0289855   0.0000000), wk =   0.0151515
        k(  129) = (   0.0217391   0.0217391   0.0000000), wk =   0.0151515
        k(  130) = (   0.0144928   0.0144928   0.0000000), wk =   0.0151515
        k(  131) = (   0.0072464   0.0072464   0.0000000), wk =   0.0151515
        k(  132) = (   0.0000000   0.0000000   0.0000000), wk =   0.0151515

     Dense  grid:   114601 G-vectors     FFT dimensions: (  32,  32, 256)

     Smooth grid:    40619 G-vectors     FFT dimensions: (  24,  24, 180)

     Largest allocated arrays     est. size (Mb)     dimensions
        Kohn-Sham Wavefunctions         0.63 Mb     (    5129,    8)
        NL pseudopotentials             1.25 Mb     (    5129,   16)
        Each V/rho on FFT grid          4.00 Mb     (  262144)
        Each G-vector array             0.87 Mb     (  114601)
        G-vector shells                 0.04 Mb     (    5559)
     Largest temporary arrays     est. size (Mb)     dimensions
        Each subspace H/S matrix        0.00 Mb     (       8,    8)
        Each <psi_i|beta_j> matrix      0.00 Mb     (      16,    8)

     Check: negative/imaginary core charge=   -0.000001    0.000000

     The potential is recalculated from file :
     ./out/aiida.save/charge-density.xml


     negative rho (up, down):  7.506E-05 0.000E+00
     Starting wfc are    8 randomized atomic wfcs
     Checking if some PAW data can be deallocated... 
       node   33, deallocated PAW data for type:  1
       node   34, deallocated PAW data for type:  1
       node   35, deallocated PAW data for type:  1
       node   36, deallocated PAW data for type:  1
       node   37, deallocated PAW data for type:  1
       node   38, deallocated PAW data for type:  1
       node   39, deallocated PAW data for type:  1
       node   40, deallocated PAW data for type:  1
       node   41, deallocated PAW data for type:  1
       node   42, deallocated PAW data for type:  1
       node   43, deallocated PAW data for type:  1
       node   44, deallocated PAW data for type:  1
       node   45, deallocated PAW data for type:  1
       node   46, deallocated PAW data for type:  1
       node   47, deallocated PAW data for type:  1
       node   48, deallocated PAW data for type:  1
       node   49, deallocated PAW data for type:  1
       node   50, deallocated PAW data for type:  1
       node   51, deallocated PAW data for type:  1
       node   52, deallocated PAW data for type:  1
       node   53, deallocated PAW data for type:  1
       node   54, deallocated PAW data for type:  1
       node   55, deallocated PAW data for type:  1
       node   56, deallocated PAW data for type:  1
       node   57, deallocated PAW data for type:  1
       node   58, deallocated PAW data for type:  1
       node   59, deallocated PAW data for type:  1
       node   60, deallocated PAW data for type:  1
       node   61, deallocated PAW data for type:  1
       node   62, deallocated PAW data for type:  1
       node   63, deallocated PAW data for type:  1
       node   64, deallocated PAW data for type:  1
       node   65, deallocated PAW data for type:  1

     Band Structure Calculation
     CG style diagonalization

     Computing kpt #:     1
     total cpu time spent up to now is        5.6 secs

     Computing kpt #:     2
     total cpu time spent up to now is        7.5 secs

     ethr =  2.50E-11,  avg # of iterations = 54.2

     total cpu time spent up to now is        7.5 secs

     End of band structure calculation

          k = 0.0000 0.0000 0.0000 (  5129 PWs)   bands (ev):

   -23.4428 -11.0303  -7.1719  -7.1719  -1.1424  -0.3083   0.4572   0.9471

          k = 0.0102 0.0059 0.0000 (  5127 PWs)   bands (ev):

   -23.4408 -11.0276  -7.1806  -7.1759  -1.1389  -0.3051   0.4605   0.9502

          k = 0.0204 0.0118 0.0000 (  5125 PWs)   bands (ev):

   -23.4348 -11.0195  -7.2069  -7.1881  -1.1284  -0.2955   0.4706   0.9597

          k = 0.0306 0.0177 0.0000 (  5121 PWs)   bands (ev):

   -23.4248 -11.0061  -7.2504  -7.2082  -1.1111  -0.2796   0.4874   0.9754

          k = 0.0408 0.0236 0.0000 (  5121 PWs)   bands (ev):

   -23.4108 -10.9873  -7.3106  -7.2360  -1.0868  -0.2572   0.5109   0.9975

          k = 0.0510 0.0295 0.0000 (  5121 PWs)   bands (ev):

   -23.3929 -10.9631  -7.3872  -7.2713  -1.0557  -0.2285   0.5411   1.0258

          k = 0.0612 0.0353 0.0000 (  5121 PWs)   bands (ev):

   -23.3709 -10.9337  -7.4793  -7.3137  -1.0179  -0.1934   0.5779   1.0603

          k = 0.0714 0.0412 0.0000 (  5123 PWs)   bands (ev):

   -23.3451 -10.8989  -7.5862  -7.3628  -0.9735  -0.1519   0.6214   1.1011

          k = 0.0816 0.0471 0.0000 (  5115 PWs)   bands (ev):

   -23.3153 -10.8588  -7.7071  -7.4181  -0.9225  -0.1041   0.6715   1.1481

          k = 0.0918 0.0530 0.0000 (  5111 PWs)   bands (ev):

   -23.2816 -10.8135  -7.8411  -7.4792  -0.8650  -0.0501   0.7281   1.2012

          k = 0.1020 0.0589 0.0000 (  5111 PWs)   bands (ev):

   -23.2440 -10.7630  -7.9871  -7.5455  -0.8011   0.0102   0.7913   1.2604

          k = 0.1122 0.0648 0.0000 (  5115 PWs)   bands (ev):

   -23.2026 -10.7073  -8.1444  -7.6165  -0.7309   0.0768   0.8610   1.3257

          k = 0.1224 0.0707 0.0000 (  5119 PWs)   bands (ev):

   -23.1573 -10.6464  -8.3118  -7.6916  -0.6545   0.1495   0.9372   1.3968

          k = 0.1327 0.0766 0.0000 (  5123 PWs)   bands (ev):

   -23.1084 -10.5804  -8.4884  -7.7703  -0.5718   0.2282   1.0199   1.4738

          k = 0.1429 0.0825 0.0000 (  5117 PWs)   bands (ev):

   -23.0557 -10.5093  -8.6734  -7.8520  -0.4830   0.3130   1.1090   1.5564

          k = 0.1531 0.0884 0.0000 (  5116 PWs)   bands (ev):

   -22.9993 -10.4333  -8.8658  -7.9363  -0.3881   0.4037   1.2046   1.6444

          k = 0.1633 0.0943 0.0000 (  5122 PWs)   bands (ev):

   -22.9393 -10.3523  -9.0647  -8.0226  -0.2872   0.5002   1.3065   1.7377

          k = 0.1735 0.1002 0.0000 (  5110 PWs)   bands (ev):

   -22.8758 -10.2665  -9.2693  -8.1105  -0.1803   0.6021   1.4149   1.8357

          k = 0.1837 0.1060 0.0000 (  5116 PWs)   bands (ev):

   -22.8089 -10.1759  -9.4789  -8.1994  -0.0674   0.7094   1.5296   1.9381

          k = 0.1939 0.1119 0.0000 (  5116 PWs)   bands (ev):

   -22.7385 -10.0806  -9.6925  -8.2890   0.0515   0.8215   1.6505   2.0440

          k = 0.2041 0.1178 0.0000 (  5120 PWs)   bands (ev):

   -22.6649  -9.9808  -9.9096  -8.3788   0.1761   0.9381   1.7778   2.1523

          k = 0.2143 0.1237 0.0000 (  5110 PWs)   bands (ev):

   -22.5881 -10.1293  -9.8765  -8.4683   0.3066   1.0582   1.9113   2.2615

          k = 0.2245 0.1296 0.0000 (  5100 PWs)   bands (ev):

   -22.5082 -10.3510  -9.7678  -8.5574   0.4428   1.1807   2.0510   2.3691

          k = 0.2347 0.1355 0.0000 (  5108 PWs)   bands (ev):

   -22.4254 -10.5741  -9.6549  -8.6456   0.5847   1.3038   2.1968   2.4713

          k = 0.2449 0.1414 0.0000 (  5104 PWs)   bands (ev):

   -22.3397 -10.7979  -9.5381  -8.7325   0.7322   1.4243   2.3486   2.5630

          k = 0.2551 0.1473 0.0000 (  5090 PWs)   bands (ev):

   -22.2515 -11.0219  -9.4173  -8.8179   0.8851   1.5373   2.5063   2.6380

          k = 0.2653 0.1532 0.0000 (  5068 PWs)   bands (ev):

   -22.1607 -11.2453  -9.2929  -8.9016   1.0433   1.6343   2.6697   2.6936

          k = 0.2755 0.1591 0.0000 (  5058 PWs)   bands (ev):

   -22.0677 -11.4677  -9.1651  -8.9833   1.2066   1.7023   2.7363   2.8386

          k = 0.2857 0.1650 0.0000 (  5050 PWs)   bands (ev):

   -21.9727 -11.6885  -9.0627  -9.0341   1.3749   1.7257   2.7851   3.0126

          k = 0.2959 0.1708 0.0000 (  5046 PWs)   bands (ev):

   -21.8759 -11.9071  -9.1396  -8.9002   1.5477   1.6939   2.8601   3.1912

          k = 0.3061 0.1767 0.0000 (  5048 PWs)   bands (ev):

   -21.7776 -12.1228  -9.2138  -8.7639   1.6092   1.7247   2.9691   3.3737

          k = 0.3163 0.1826 0.0000 (  5060 PWs)   bands (ev):

   -21.6782 -12.3352  -9.2852  -8.6253   1.4834   1.9055   3.1087   3.5587

          k = 0.3265 0.1885 0.0000 (  5064 PWs)   bands (ev):

   -21.5779 -12.5436  -9.3535  -8.4850   1.3293   2.0892   3.2719   3.7442

          k = 0.3367 0.1944 0.0000 (  5060 PWs)   bands (ev):

   -21.4772 -12.7472  -9.4187  -8.3435   1.1572   2.2752   3.4530   3.9267

          k = 0.3469 0.2003 0.0000 (  5064 PWs)   bands (ev):

   -21.3766 -12.9456  -9.4806  -8.2013   0.9739   2.4620   3.6479   4.1009

          k = 0.3571 0.2062 0.0000 (  5062 PWs)   bands (ev):

   -21.2766 -13.1378  -9.5390  -8.0591   0.7846   2.6481   3.8544   4.2592

          k = 0.3673 0.2121 0.0000 (  5062 PWs)   bands (ev):

   -21.1778 -13.3233  -9.5938  -7.9177   0.5930   2.8312   4.0706   4.3958

          k = 0.3776 0.2180 0.0000 (  5060 PWs)   bands (ev):

   -21.0808 -13.5011  -9.6449  -7.7779   0.4021   3.0083   4.2955   4.5125

          k = 0.3878 0.2239 0.0000 (  5050 PWs)   bands (ev):

   -20.9863 -13.6704  -9.6923  -7.6407   0.2143   3.1757   4.5283   4.6192

          k = 0.3980 0.2298 0.0000 (  5046 PWs)   bands (ev):

   -20.8951 -13.8303  -9.7359  -7.5072   0.0321   3.3289   4.7287   4.7684

          k = 0.4082 0.2357 0.0000 (  5048 PWs)   bands (ev):

   -20.8082 -13.9797  -9.7755  -7.3788  -0.1424   3.4637   4.8514   5.0154

          k = 0.4184 0.2415 0.0000 (  5054 PWs)   bands (ev):

   -20.7265 -14.1177  -9.8111  -7.2568  -0.3071   3.5772   4.9942   5.2688

          k = 0.4286 0.2474 0.0000 (  5054 PWs)   bands (ev):

   -20.6509 -14.2431  -9.8427  -7.1429  -0.4598   3.6686   5.1602   5.5282

          k = 0.4388 0.2533 0.0000 (  5062 PWs)   bands (ev):

   -20.5825 -14.3549  -9.8701  -7.0388  -0.5983   3.7393   5.3488   5.7931

          k = 0.4490 0.2592 0.0000 (  5054 PWs)   bands (ev):

   -20.5224 -14.4518  -9.8934  -6.9463  -0.7204   3.7924   5.5575   6.0627

          k = 0.4592 0.2651 0.0000 (  5046 PWs)   bands (ev):

   -20.4715 -14.5328  -9.9125  -6.8673  -0.8239   3.8311   5.7827   6.3360

          k = 0.4694 0.2710 0.0000 (  5044 PWs)   bands (ev):

   -20.4308 -14.5970  -9.9274  -6.8037  -0.9070   3.8583   6.0201   6.6108

          k = 0.4796 0.2769 0.0000 (  5052 PWs)   bands (ev):

   -20.4011 -14.6436  -9.9381  -6.7569  -0.9677   3.8762   6.2634   6.8822

          k = 0.4898 0.2828 0.0000 (  5052 PWs)   bands (ev):

   -20.3831 -14.6718  -9.9445  -6.7283  -1.0047   3.8863   6.4960   7.1327

          k = 0.5000 0.2887 0.0000 (  5040 PWs)   bands (ev):

   -20.3770 -14.6812  -9.9466  -6.7186  -1.0172   3.8896   6.6281   7.0577

          k = 0.4954 0.2967 0.0000 (  5046 PWs)   bands (ev):

   -20.3762 -14.6802  -9.9517  -6.7174  -1.0169   3.8967   6.6299   7.0601

          k = 0.4907 0.3047 0.0000 (  5054 PWs)   bands (ev):

   -20.3737 -14.6772  -9.9669  -6.7138  -1.0160   3.9179   6.6351   7.0672

          k = 0.4861 0.3127 0.0000 (  5054 PWs)   bands (ev):

   -20.3696 -14.6722  -9.9922  -6.7078  -1.0145   3.9530   6.6437   7.0791

          k = 0.4815 0.3208 0.0000 (  5054 PWs)   bands (ev):

   -20.3639 -14.6652 -10.0272  -6.6993  -1.0125   4.0017   6.6559   7.0958

          k = 0.4769 0.3288 0.0000 (  5046 PWs)   bands (ev):

   -20.3565 -14.6562 -10.0716  -6.6885  -1.0100   4.0637   6.6715   7.1173

          k = 0.4722 0.3368 0.0000 (  5054 PWs)   bands (ev):

   -20.3476 -14.6453 -10.1253  -6.6754  -1.0071   4.1384   6.6906   7.1437

          k = 0.4676 0.3448 0.0000 (  5054 PWs)   bands (ev):

   -20.3372 -14.6324 -10.1876  -6.6599  -1.0038   4.2253   6.7132   7.1751

          k = 0.4630 0.3528 0.0000 (  5056 PWs)   bands (ev):

   -20.3252 -14.6174 -10.2581  -6.6422  -1.0002   4.3237   6.7392   7.2115

          k = 0.4583 0.3608 0.0000 (  5052 PWs)   bands (ev):

   -20.3118 -14.6006 -10.3364  -6.6223  -0.9964   4.4329   6.7688   7.2531

          k = 0.4537 0.3689 0.0000 (  5040 PWs)   bands (ev):

   -20.2969 -14.5817 -10.4218  -6.6002  -0.9926   4.5519   6.8018   7.3000

          k = 0.4491 0.3769 0.0000 (  5026 PWs)   bands (ev):

   -20.2807 -14.5609 -10.5137  -6.5760  -0.9887   4.6798   6.8384   7.3471

          k = 0.4444 0.3849 0.0000 (  5022 PWs)   bands (ev):

   -20.2632 -14.5382 -10.6115  -6.5499  -0.9851   4.8157   6.8786   7.3517

          k = 0.4398 0.3929 0.0000 (  5030 PWs)   bands (ev):

   -20.2445 -14.5136 -10.7147  -6.5218  -0.9817   4.9584   6.9223   7.3516

          k = 0.4352 0.4009 0.0000 (  5028 PWs)   bands (ev):

   -20.2247 -14.4870 -10.8226  -6.4919  -0.9788   5.1068   6.9697   7.3479

          k = 0.4306 0.4090 0.0000 (  5038 PWs)   bands (ev):

   -20.2038 -14.4586 -10.9346  -6.4603  -0.9765   5.2597   7.0207   7.3386

          k = 0.4259 0.4170 0.0000 (  5038 PWs)   bands (ev):

   -20.1819 -14.4284 -11.0499  -6.4271  -0.9749   5.4157   7.0756   7.3230

          k = 0.4213 0.4250 0.0000 (  5038 PWs)   bands (ev):

   -20.1592 -14.3963 -11.1681  -6.3926  -0.9742   5.5734   7.1342   7.3003

          k = 0.4167 0.4330 0.0000 (  5032 PWs)   bands (ev):

   -20.1358 -14.3624 -11.2885  -6.3567  -0.9745   5.7315   7.1969   7.2704

          k = 0.4120 0.4410 0.0000 (  5038 PWs)   bands (ev):

   -20.1118 -14.3268 -11.4104  -6.3198  -0.9760   5.8884   7.2334   7.2635

          k = 0.4074 0.4491 0.0000 (  5046 PWs)   bands (ev):

   -20.0873 -14.2895 -11.5333  -6.2819  -0.9787   6.0428   7.1898   7.3344

          k = 0.4028 0.4571 0.0000 (  5038 PWs)   bands (ev):

   -20.0625 -14.2506 -11.6565  -6.2434  -0.9829   6.1933   7.1407   7.4096

          k = 0.3981 0.4651 0.0000 (  5046 PWs)   bands (ev):

   -20.0376 -14.2101 -11.7794  -6.2044  -0.9884   6.3385   7.0870   7.4891

          k = 0.3935 0.4731 0.0000 (  5052 PWs)   bands (ev):

   -20.0128 -14.1682 -11.9013  -6.1654  -0.9955   6.4774   7.0304   7.5732

          k = 0.3889 0.4811 0.0000 (  5056 PWs)   bands (ev):

   -19.9882 -14.1250 -12.0217  -6.1264  -1.0040   6.6091   6.9721   7.6616

          k = 0.3843 0.4891 0.0000 (  5054 PWs)   bands (ev):

   -19.9640 -14.0807 -12.1398  -6.0879  -1.0139   6.7330   6.9136   7.7543

          k = 0.3796 0.4972 0.0000 (  5058 PWs)   bands (ev):

   -19.9405 -14.0355 -12.2548  -6.0502  -1.0251   6.8488   6.8563   7.8512

          k = 0.3750 0.5052 0.0000 (  5058 PWs)   bands (ev):

   -19.9180 -13.9896 -12.3661  -6.0138  -1.0374   6.8014   6.9561   7.9517

          k = 0.3704 0.5132 0.0000 (  5062 PWs)   bands (ev):

   -19.8966 -13.9436 -12.4727  -5.9790  -1.0505   6.7501   7.0550   8.0554

          k = 0.3657 0.5212 0.0000 (  5070 PWs)   bands (ev):

   -19.8766 -13.8979 -12.5735  -5.9463  -1.0642   6.7034   7.1454   8.1617

          k = 0.3611 0.5292 0.0000 (  5064 PWs)   bands (ev):

   -19.8583 -13.8533 -12.6672  -5.9162  -1.0779   6.6619   7.2272   8.2696

          k = 0.3565 0.5373 0.0000 (  5072 PWs)   bands (ev):

   -19.8421 -13.8110 -12.7525  -5.8892  -1.0913   6.6262   7.3001   8.3779

          k = 0.3519 0.5453 0.0000 (  5068 PWs)   bands (ev):

   -19.8281 -13.7723 -12.8273  -5.8659  -1.1037   6.5970   7.3635   8.4847

          k = 0.3472 0.5533 0.0000 (  5062 PWs)   bands (ev):

   -19.8168 -13.7391 -12.8892  -5.8468  -1.1146   6.5743   7.4165   8.5868

          k = 0.3426 0.5613 0.0000 (  5064 PWs)   bands (ev):

   -19.8083 -13.7136 -12.9358  -5.8325  -1.1232   6.5583   7.4576   8.6781

          k = 0.3380 0.5693 0.0000 (  5056 PWs)   bands (ev):

   -19.8030 -13.6977 -12.9646  -5.8235  -1.1289   6.5489   7.4845   8.7468

          k = 0.3333 0.5774 0.0000 (  5052 PWs)   bands (ev):

   -19.8012 -13.6925 -12.9742  -5.8204  -1.1310   6.5458   7.4943   8.7738

          k = 0.3261 0.5648 0.0000 (  5064 PWs)   bands (ev):

   -19.8059 -13.7032 -12.9523  -5.8285  -1.1252   6.5527   7.4658   8.7132

          k = 0.3188 0.5522 0.0000 (  5058 PWs)   bands (ev):

   -19.8207 -13.7277 -12.8937  -5.8538  -1.1062   6.5710   7.3701   8.5925

          k = 0.3116 0.5397 0.0000 (  5076 PWs)   bands (ev):

   -19.8463 -13.7538 -12.8093  -5.8972  -1.0719   6.5962   7.2001   8.4783

          k = 0.3043 0.5271 0.0000 (  5074 PWs)   bands (ev):

   -19.8832 -13.7726 -12.7074  -5.9595  -1.0205   6.6208   6.9657   8.3820

          k = 0.2971 0.5146 0.0000 (  5070 PWs)   bands (ev):

   -19.9316 -13.7786 -12.5932  -6.0403  -0.9513   6.6335   6.6868   8.2810

          k = 0.2899 0.5020 0.0000 (  5058 PWs)   bands (ev):

   -19.9914 -13.7687 -12.4697  -6.1389  -0.8638   6.3815   6.6174   8.1235

          k = 0.2826 0.4895 0.0000 (  5058 PWs)   bands (ev):

   -20.0622 -13.7413 -12.3387  -6.2541  -0.7583   6.0621   6.5508   7.8339

          k = 0.2754 0.4769 0.0000 (  5062 PWs)   bands (ev):

   -20.1435 -13.6960 -12.2015  -6.3843  -0.6357   5.7366   6.4165   7.5394

          k = 0.2681 0.4644 0.0000 (  5058 PWs)   bands (ev):

   -20.2344 -13.6327 -12.0589  -6.5276  -0.4971   5.4096   6.2154   7.1972

          k = 0.2609 0.4518 0.0000 (  5042 PWs)   bands (ev):

   -20.3339 -13.5518 -11.9115  -6.6820  -0.3437   5.0844   5.9660   6.8532

          k = 0.2536 0.4393 0.0000 (  5046 PWs)   bands (ev):

   -20.4409 -13.4542 -11.7597  -6.8456  -0.1773   4.7630   5.6892   6.5132

          k = 0.2464 0.4267 0.0000 (  5056 PWs)   bands (ev):

   -20.5543 -13.3407 -11.6040  -7.0166   0.0006   4.4468   5.3999   6.1797

          k = 0.2391 0.4142 0.0000 (  5044 PWs)   bands (ev):

   -20.6730 -13.2123 -11.4448  -7.1932   0.1881   4.1367   5.1073   5.8539

          k = 0.2319 0.4016 0.0000 (  5052 PWs)   bands (ev):

   -20.7958 -13.0701 -11.2823  -7.3738   0.3834   3.8335   4.8168   5.5366

          k = 0.2246 0.3891 0.0000 (  5052 PWs)   bands (ev):

   -20.9218 -12.9151 -11.1170  -7.5570   0.5843   3.5378   4.5319   5.2280

          k = 0.2174 0.3765 0.0000 (  5058 PWs)   bands (ev):

   -21.0498 -12.7484 -10.9491  -7.7415   0.7883   3.2500   4.2551   4.9285

          k = 0.2101 0.3640 0.0000 (  5060 PWs)   bands (ev):

   -21.1790 -12.5708 -10.7791  -7.9262   0.9924   2.9703   3.9888   4.6383

          k = 0.2029 0.3514 0.0000 (  5044 PWs)   bands (ev):

   -21.3086 -12.3834 -10.6072  -8.1100   1.1926   2.6990   3.7354   4.3575

          k = 0.1957 0.3389 0.0000 (  5055 PWs)   bands (ev):

   -21.4379 -12.1870 -10.4339  -8.2921   1.3832   2.4363   3.4982   4.0862

          k = 0.1884 0.3263 0.0000 (  5059 PWs)   bands (ev):

   -21.5662 -11.9825 -10.2596  -8.4718   1.5555   2.1824   3.2825   3.8244

          k = 0.1812 0.3138 0.0000 (  5069 PWs)   bands (ev):

   -21.6928 -11.7708 -10.0847  -8.6482   1.6959   1.9375   3.0962   3.5723

          k = 0.1739 0.3012 0.0000 (  5079 PWs)   bands (ev):

   -21.8173 -11.5527  -9.9096  -8.8208   1.7015   1.7852   2.9506   3.3299

          k = 0.1667 0.2887 0.0000 (  5075 PWs)   bands (ev):

   -21.9391 -11.3289  -9.7349  -8.9892   1.4746   1.8041   2.8522   3.0971

          k = 0.1594 0.2761 0.0000 (  5097 PWs)   bands (ev):

   -22.0579 -11.1004  -9.5610  -9.1527   1.2568   1.7501   2.7868   2.8741

          k = 0.1522 0.2636 0.0000 (  5093 PWs)   bands (ev):

   -22.1733 -10.8679  -9.3886  -9.3110   1.0483   1.6425   2.6608   2.7213

          k = 0.1449 0.2510 0.0000 (  5105 PWs)   bands (ev):

   -22.2849 -10.6322  -9.4637  -9.2180   0.8490   1.5054   2.4573   2.6324

          k = 0.1377 0.2385 0.0000 (  5109 PWs)   bands (ev):

   -22.3925 -10.3943  -9.6105  -9.0500   0.6590   1.3552   2.2636   2.5192

          k = 0.1304 0.2259 0.0000 (  5113 PWs)   bands (ev):

   -22.4957 -10.1550  -9.7511  -8.8852   0.4783   1.2014   2.0797   2.3906

          k = 0.1232 0.2134 0.0000 (  5119 PWs)   bands (ev):

   -22.5944  -9.9153  -9.8852  -8.7241   0.3070   1.0492   1.9056   2.2554

          k = 0.1159 0.2008 0.0000 (  5109 PWs)   bands (ev):

   -22.6883 -10.0127  -9.6763  -8.5675   0.1450   0.9015   1.7413   2.1195

          k = 0.1087 0.1883 0.0000 (  5105 PWs)   bands (ev):

   -22.7773 -10.1332  -9.4390  -8.4159  -0.0076   0.7599   1.5868   1.9865

          k = 0.1014 0.1757 0.0000 (  5109 PWs)   bands (ev):

   -22.8612 -10.2467  -9.2048  -8.2702  -0.1508   0.6256   1.4421   1.8586

          k = 0.0942 0.1632 0.0000 (  5117 PWs)   bands (ev):

   -22.9398 -10.3530  -8.9750  -8.1308  -0.2846   0.4994   1.3073   1.7371

          k = 0.0870 0.1506 0.0000 (  5113 PWs)   bands (ev):

   -23.0131 -10.4519  -8.7509  -7.9986  -0.4089   0.3815   1.1823   1.6230

          k = 0.0797 0.1381 0.0000 (  5113 PWs)   bands (ev):

   -23.0808 -10.5433  -8.5342  -7.8741  -0.5239   0.2725   1.0671   1.5170

          k = 0.0725 0.1255 0.0000 (  5113 PWs)   bands (ev):

   -23.1430 -10.6271  -8.3265  -7.7581  -0.6293   0.1725   0.9618   1.4193

          k = 0.0652 0.1130 0.0000 (  5119 PWs)   bands (ev):

   -23.1995 -10.7032  -8.1298  -7.6510  -0.7252   0.0817   0.8664   1.3305

          k = 0.0580 0.1004 0.0000 (  5115 PWs)   bands (ev):

   -23.2502 -10.7714  -7.9458  -7.5536  -0.8114   0.0002   0.7809   1.2506

          k = 0.0507 0.0879 0.0000 (  5125 PWs)   bands (ev):

   -23.2952 -10.8318  -7.7768  -7.4662  -0.8880  -0.0719   0.7053   1.1798

          k = 0.0435 0.0753 0.0000 (  5119 PWs)   bands (ev):

   -23.3342 -10.8843  -7.6246  -7.3895  -0.9548  -0.1345   0.6397   1.1183

          k = 0.0362 0.0628 0.0000 (  5123 PWs)   bands (ev):

   -23.3673 -10.9288  -7.4914  -7.3238  -1.0117  -0.1875   0.5840   1.0661

          k = 0.0290 0.0502 0.0000 (  5123 PWs)   bands (ev):

   -23.3945 -10.9653  -7.3792  -7.2695  -1.0585  -0.2310   0.5384   1.0233

          k = 0.0217 0.0377 0.0000 (  5127 PWs)   bands (ev):

   -23.4156 -10.9937  -7.2898  -7.2270  -1.0951  -0.2648   0.5029   0.9900

          k = 0.0145 0.0251 0.0000 (  5127 PWs)   bands (ev):

   -23.4307 -11.0140  -7.2247  -7.1964  -1.1213  -0.2890   0.4775   0.9661

          k = 0.0072 0.0126 0.0000 (  5125 PWs)   bands (ev):

   -23.4398 -11.0262  -7.1851  -7.1780  -1.1371  -0.3035   0.4622   0.9518

          k = 0.0000 0.0000 0.0000 (  5129 PWs)   bands (ev):

   -23.4428 -11.0303  -7.1719  -7.1719  -1.1424  -0.3083   0.4572   0.9471

     Writing output data file aiida.save
 
     init_run     :      2.47s CPU      2.64s WALL (       1 calls)
     electrons    :      3.87s CPU      4.04s WALL (       1 calls)

     Called by init_run:
     wfcinit      :      0.00s CPU      0.02s WALL (       1 calls)
     potinit      :      1.62s CPU      1.72s WALL (       1 calls)

     Called by electrons:
     c_bands      :      3.87s CPU      4.03s WALL (       1 calls)
     v_of_rho     :      0.14s CPU      0.15s WALL (       1 calls)
     v_h          :      0.01s CPU      0.01s WALL (       1 calls)
     v_xc         :      0.12s CPU      0.14s WALL (       1 calls)
     newd         :      0.22s CPU      0.22s WALL (       1 calls)

     Called by c_bands:
     init_us_2    :      0.01s CPU      0.00s WALL (       2 calls)
     ccgdiagg     :      2.74s CPU      2.74s WALL (       7 calls)
     wfcrot       :      0.18s CPU      0.18s WALL (       7 calls)

     Called by sum_band:

     Called by *cgdiagg:
     h_psi        :      2.54s CPU      2.59s WALL (     686 calls)
     s_psi        :      0.12s CPU      0.10s WALL (    1365 calls)
     cdiaghg      :      0.00s CPU      0.00s WALL (       7 calls)

     Called by h_psi:
     h_psi:vloc   :      2.17s CPU      2.36s WALL (     686 calls)
     h_psi:vnl    :      0.37s CPU      0.22s WALL (     686 calls)
     add_vuspsi   :      0.10s CPU      0.09s WALL (     686 calls)

     General routines
     calbec       :      0.30s CPU      0.18s WALL (    1365 calls)
     fft          :      0.15s CPU      0.17s WALL (      13 calls)
     ffts         :      0.00s CPU      0.00s WALL (       1 calls)
     fftw         :      1.81s CPU      1.89s WALL (    1470 calls)
     interpolate  :      0.01s CPU      0.01s WALL (       1 calls)
     davcio       :      0.00s CPU      0.00s WALL (       2 calls)
 
     Parallel routines
     fft_scatter  :      0.16s CPU      0.20s WALL (    1484 calls)

     PAW routines
     PAW_pot      :      0.02s CPU      0.04s WALL (       1 calls)
 
     PWSCF        :     6.98s CPU        13.79s WALL

 
   This run was terminated on:   6:33:44   6Jan2017            

=------------------------------------------------------------------------------=
   JOB DONE.
=------------------------------------------------------------------------------=
