
     Program PWSCF v.6.1 starts on 28Mar2017 at 17:26:22 

     This program is part of the open-source Quantum ESPRESSO suite
     for quantum simulation of materials; please cite
         "P. Giannozzi et al., J. Phys.:Condens. Matter 21 395502 (2009);
          URL http://www.quantum-espresso.org", 
     in publications or presentations arising from this work. More details at
     http://www.quantum-espresso.org/quote

     Parallel version (MPI & OpenMP), running on      72 processor cores
     Number of MPI processes:                72
     Threads/MPI process:                     1
     K-points division:     npool     =       6
     R & G space division:  proc/nbgrp/npool/nimage =      12
     Reading input from aiida.in

     Current dimensions of program PWSCF are:
     Max number of different atomic species (ntypx) = 10
     Max number of k-points (npk) =  40000
     Max angular momentum in pseudopotentials (lmaxx) =  3
               file B.pbe-n-kjpaw_psl.0.1.UPF: wavefunction(s)  2P renormalized

     Subspace diagonalization in iterative solution of the eigenvalue problem:
     one sub-group per band group will be used
     scalapack distributed-memory algorithm (size of sub-group:  2*  2 procs)

 
     Parallelization info
     --------------------
     sticks:   dense  smooth     PW     G-vecs:    dense   smooth      PW
     Min          56      28      8                 9542     3379     579
     Max          57      30     10                 9583     3398     596
     Sum         673     349    109               114601    40619    7035
 


     bravais-lattice index     =            0
     lattice parameter (alat)  =       4.7419  a.u.
     unit-cell volume          =     735.9740 (a.u.)^3
     number of atoms/cell      =            2
     number of atomic types    =            2
     number of electrons       =         8.00
     number of Kohn-Sham states=            4
     kinetic-energy cutoff     =      55.0000  Ry
     charge density cutoff     =     440.0000  Ry
     convergence threshold     =      4.0E-10
     mixing beta               =       0.7000
     number of iterations used =            8  plain     mixing
     Exchange-correlation      = PBE ( 1  4  3  4 0 0)

     celldm(1)=   4.741890  celldm(2)=   0.000000  celldm(3)=   0.000000
     celldm(4)=   0.000000  celldm(5)=   0.000000  celldm(6)=   0.000000

     crystal axes: (cart. coord. in units of alat)
               a(1) = (   1.000000   0.000000   0.000000 )  
               a(2) = (  -0.500000   0.866025   0.000000 )  
               a(3) = (   0.000000   0.000000   7.970350 )  

     reciprocal axes: (cart. coord. in units 2 pi/alat)
               b(1) = (  1.000000  0.577350  0.000000 )  
               b(2) = (  0.000000  1.154701  0.000000 )  
               b(3) = (  0.000000  0.000000  0.125465 )  


     PseudoPot. # 1 for  B read from file:
     ./pseudo/B.pbe-n-kjpaw_psl.0.1.UPF
     MD5 check sum: b4345a612e0782cca08559f453f3313f
     Pseudo is Projector augmented-wave + core cor, Zval =  3.0
     Generated using "atomic" code by A. Dal Corso  v.5.0.99 svn rev. 10869
     Shape of augmentation charge: BESSEL
     Using radial grid of 1059 points,  4 beta functions with: 
                l(1) =   0
                l(2) =   0
                l(3) =   1
                l(4) =   1
     Q(r) pseudized with 0 coefficients 


     PseudoPot. # 2 for  N read from file:
     ./pseudo/N.pbe.theos.UPF
     MD5 check sum: 1fde47ee573fe9ed3106b9b4217eb757
     Pseudo is Ultrasoft + core correction, Zval =  5.0
     Generated using "atomic" code by A. Dal Corso  v.5.1
     Using radial grid of 1085 points,  4 beta functions with: 
                l(1) =   0
                l(2) =   0
                l(3) =   1
                l(4) =   1
     Q(r) pseudized with 0 coefficients 


     atomic species   valence    mass     pseudopotential
        B              3.00    10.81100      B( 1.00)
        N              5.00    14.00670      N( 1.00)

     12 Sym. Ops. (no inversion) found


                                    s                        frac. trans.

      isym =  1     identity                                     

 cryst.   s( 1) = (     1          0          0      )
                  (     0          1          0      )
                  (     0          0          1      )

 cart.    s( 1) = (  1.0000000  0.0000000  0.0000000 )
                  (  0.0000000  1.0000000  0.0000000 )
                  (  0.0000000  0.0000000  1.0000000 )


      isym =  2     180 deg rotation - cart. axis [0,1,0]        

 cryst.   s( 2) = (    -1          0          0      )
                  (     1          1          0      )
                  (     0          0         -1      )

 cart.    s( 2) = ( -1.0000000  0.0000000  0.0000000 )
                  (  0.0000000  1.0000000  0.0000000 )
                  (  0.0000000  0.0000000 -1.0000000 )


      isym =  3     120 deg rotation - cryst. axis [0,0,1]       

 cryst.   s( 3) = (     0          1          0      )
                  (    -1         -1          0      )
                  (     0          0          1      )

 cart.    s( 3) = ( -0.5000000 -0.8660254  0.0000000 )
                  (  0.8660254 -0.5000000  0.0000000 )
                  (  0.0000000  0.0000000  1.0000000 )


      isym =  4     120 deg rotation - cryst. axis [0,0,-1]      

 cryst.   s( 4) = (    -1         -1          0      )
                  (     1          0          0      )
                  (     0          0          1      )

 cart.    s( 4) = ( -0.5000000  0.8660254  0.0000000 )
                  ( -0.8660254 -0.5000000  0.0000000 )
                  (  0.0000000  0.0000000  1.0000000 )


      isym =  5     180 deg rotation - cryst. axis [1,-1,0]      

 cryst.   s( 5) = (     0         -1          0      )
                  (    -1          0          0      )
                  (     0          0         -1      )

 cart.    s( 5) = (  0.5000000 -0.8660254  0.0000000 )
                  ( -0.8660254 -0.5000000  0.0000000 )
                  (  0.0000000  0.0000000 -1.0000000 )


      isym =  6     180 deg rotation - cryst. axis [2,1,0]       

 cryst.   s( 6) = (     1          1          0      )
                  (     0         -1          0      )
                  (     0          0         -1      )

 cart.    s( 6) = (  0.5000000  0.8660254  0.0000000 )
                  (  0.8660254 -0.5000000  0.0000000 )
                  (  0.0000000  0.0000000 -1.0000000 )


      isym =  7     inv. 180 deg rotation - cart. axis [0,0,1]   

 cryst.   s( 7) = (     1          0          0      )
                  (     0          1          0      )
                  (     0          0         -1      )

 cart.    s( 7) = (  1.0000000  0.0000000  0.0000000 )
                  (  0.0000000  1.0000000  0.0000000 )
                  (  0.0000000  0.0000000 -1.0000000 )


      isym =  8     inv. 180 deg rotation - cart. axis [1,0,0]   

 cryst.   s( 8) = (    -1          0          0      )
                  (     1          1          0      )
                  (     0          0          1      )

 cart.    s( 8) = ( -1.0000000  0.0000000  0.0000000 )
                  (  0.0000000  1.0000000  0.0000000 )
                  (  0.0000000  0.0000000  1.0000000 )


      isym =  9     inv.  60 deg rotation - cryst. axis [0,0,1]  

 cryst.   s( 9) = (    -1         -1          0      )
                  (     1          0          0      )
                  (     0          0         -1      )

 cart.    s( 9) = ( -0.5000000  0.8660254  0.0000000 )
                  ( -0.8660254 -0.5000000  0.0000000 )
                  (  0.0000000  0.0000000 -1.0000000 )


      isym = 10     inv.  60 deg rotation - cryst. axis [0,0,-1] 

 cryst.   s(10) = (     0          1          0      )
                  (    -1         -1          0      )
                  (     0          0         -1      )

 cart.    s(10) = ( -0.5000000 -0.8660254  0.0000000 )
                  (  0.8660254 -0.5000000  0.0000000 )
                  (  0.0000000  0.0000000 -1.0000000 )


      isym = 11     inv. 180 deg rotation - cryst. axis [0,1,0]  

 cryst.   s(11) = (     1          1          0      )
                  (     0         -1          0      )
                  (     0          0          1      )

 cart.    s(11) = (  0.5000000  0.8660254  0.0000000 )
                  (  0.8660254 -0.5000000  0.0000000 )
                  (  0.0000000  0.0000000  1.0000000 )


      isym = 12     inv. 180 deg rotation - cryst. axis [1,1,0]  

 cryst.   s(12) = (     0         -1          0      )
                  (    -1          0          0      )
                  (     0          0          1      )

 cart.    s(12) = (  0.5000000 -0.8660254  0.0000000 )
                  ( -0.8660254 -0.5000000  0.0000000 )
                  (  0.0000000  0.0000000  1.0000000 )


   Cartesian axes

     site n.     atom                  positions (alat units)
         1           B   tau(   1) = (   0.0000000   0.5773503   3.9851749  )
         2           N   tau(   2) = (   0.5000000   0.2886751   3.9851749  )

   Crystallographic axes

     site n.     atom                  positions (cryst. coord.)
         1           B   tau(   1) = (  0.3333333  0.6666667  0.5000000  )
         2           N   tau(   2) = (  0.6666667  0.3333333  0.5000000  )

     number of k points=    30
                       cart. coord. in units 2pi/alat
        k(    1) = (   0.0000000   0.0000000   0.0000000), wk =   0.0078125
        k(    2) = (   0.0000000   0.0721688   0.0000000), wk =   0.0468750
        k(    3) = (   0.0000000   0.1443376   0.0000000), wk =   0.0468750
        k(    4) = (   0.0000000   0.2165064   0.0000000), wk =   0.0468750
        k(    5) = (   0.0000000   0.2886751   0.0000000), wk =   0.0468750
        k(    6) = (   0.0000000   0.3608439   0.0000000), wk =   0.0468750
        k(    7) = (   0.0000000   0.4330127   0.0000000), wk =   0.0468750
        k(    8) = (   0.0000000   0.5051815   0.0000000), wk =   0.0468750
        k(    9) = (   0.0000000  -0.5773503   0.0000000), wk =   0.0234375
        k(   10) = (   0.0625000   0.1082532   0.0000000), wk =   0.0468750
        k(   11) = (   0.0625000   0.1804220   0.0000000), wk =   0.0937500
        k(   12) = (   0.0625000   0.2525907   0.0000000), wk =   0.0937500
        k(   13) = (   0.0625000   0.3247595   0.0000000), wk =   0.0937500
        k(   14) = (   0.0625000   0.3969283   0.0000000), wk =   0.0937500
        k(   15) = (   0.0625000   0.4690971   0.0000000), wk =   0.0937500
        k(   16) = (   0.0625000   0.5412659   0.0000000), wk =   0.0937500
        k(   17) = (   0.1250000   0.2165064   0.0000000), wk =   0.0468750
        k(   18) = (   0.1250000   0.2886751   0.0000000), wk =   0.0937500
        k(   19) = (   0.1250000   0.3608439   0.0000000), wk =   0.0937500
        k(   20) = (   0.1250000   0.4330127   0.0000000), wk =   0.0937500
        k(   21) = (   0.1250000   0.5051815   0.0000000), wk =   0.0937500
        k(   22) = (   0.1250000   0.5773503   0.0000000), wk =   0.0468750
        k(   23) = (   0.1875000   0.3247595   0.0000000), wk =   0.0468750
        k(   24) = (   0.1875000   0.3969283   0.0000000), wk =   0.0937500
        k(   25) = (   0.1875000   0.4690971   0.0000000), wk =   0.0937500
        k(   26) = (   0.1875000   0.5412659   0.0000000), wk =   0.0937500
        k(   27) = (   0.2500000   0.4330127   0.0000000), wk =   0.0468750
        k(   28) = (   0.2500000   0.5051815   0.0000000), wk =   0.0937500
        k(   29) = (   0.2500000   0.5773503   0.0000000), wk =   0.0468750
        k(   30) = (   0.3125000   0.5412659   0.0000000), wk =   0.0468750

                       cryst. coord.
        k(    1) = (   0.0000000   0.0000000   0.0000000), wk =   0.0078125
        k(    2) = (   0.0000000   0.0625000   0.0000000), wk =   0.0468750
        k(    3) = (   0.0000000   0.1250000   0.0000000), wk =   0.0468750
        k(    4) = (   0.0000000   0.1875000   0.0000000), wk =   0.0468750
        k(    5) = (   0.0000000   0.2500000   0.0000000), wk =   0.0468750
        k(    6) = (   0.0000000   0.3125000   0.0000000), wk =   0.0468750
        k(    7) = (   0.0000000   0.3750000   0.0000000), wk =   0.0468750
        k(    8) = (   0.0000000   0.4375000   0.0000000), wk =   0.0468750
        k(    9) = (   0.0000000  -0.5000000   0.0000000), wk =   0.0234375
        k(   10) = (   0.0625000   0.0625000   0.0000000), wk =   0.0468750
        k(   11) = (   0.0625000   0.1250000   0.0000000), wk =   0.0937500
        k(   12) = (   0.0625000   0.1875000   0.0000000), wk =   0.0937500
        k(   13) = (   0.0625000   0.2500000   0.0000000), wk =   0.0937500
        k(   14) = (   0.0625000   0.3125000   0.0000000), wk =   0.0937500
        k(   15) = (   0.0625000   0.3750000   0.0000000), wk =   0.0937500
        k(   16) = (   0.0625000   0.4375000   0.0000000), wk =   0.0937500
        k(   17) = (   0.1250000   0.1250000   0.0000000), wk =   0.0468750
        k(   18) = (   0.1250000   0.1875000   0.0000000), wk =   0.0937500
        k(   19) = (   0.1250000   0.2500000   0.0000000), wk =   0.0937500
        k(   20) = (   0.1250000   0.3125000   0.0000000), wk =   0.0937500
        k(   21) = (   0.1250000   0.3750000   0.0000000), wk =   0.0937500
        k(   22) = (   0.1250000   0.4375000   0.0000000), wk =   0.0468750
        k(   23) = (   0.1875000   0.1875000   0.0000000), wk =   0.0468750
        k(   24) = (   0.1875000   0.2500000   0.0000000), wk =   0.0937500
        k(   25) = (   0.1875000   0.3125000   0.0000000), wk =   0.0937500
        k(   26) = (   0.1875000   0.3750000   0.0000000), wk =   0.0937500
        k(   27) = (   0.2500000   0.2500000   0.0000000), wk =   0.0468750
        k(   28) = (   0.2500000   0.3125000   0.0000000), wk =   0.0937500
        k(   29) = (   0.2500000   0.3750000   0.0000000), wk =   0.0468750
        k(   30) = (   0.3125000   0.3125000   0.0000000), wk =   0.0468750

     Dense  grid:   114601 G-vectors     FFT dimensions: (  32,  32, 256)

     Smooth grid:    40619 G-vectors     FFT dimensions: (  24,  24, 180)

     Estimated max dynamical RAM per process >       5.94MB

     Estimated total allocated dynamical RAM >     427.43MB
 ----2D----2D----2D----2D----2D----2D
 THE CODE IS RUNNING WITH 2D CUTOFF
 ----2D----2D----2D----2D----2D----2D

     Check: negative/imaginary core charge=   -0.000001    0.000000

     Initial potential from superposition of free atoms

     starting charge    7.99334, renormalised to    8.00000

     negative rho (up, down):  3.806E-05 0.000E+00
     Starting wfc are    8 randomized atomic wfcs
     Checking if some PAW data can be deallocated... 
       node   36, deallocated PAW data for type:  1
       node   37, deallocated PAW data for type:  1
       node   38, deallocated PAW data for type:  1
       node   39, deallocated PAW data for type:  1
       node   40, deallocated PAW data for type:  1
       node   41, deallocated PAW data for type:  1
       node   42, deallocated PAW data for type:  1
       node   43, deallocated PAW data for type:  1
       node   44, deallocated PAW data for type:  1
       node   45, deallocated PAW data for type:  1
       node   46, deallocated PAW data for type:  1
       node   47, deallocated PAW data for type:  1
       node   48, deallocated PAW data for type:  1
       node   49, deallocated PAW data for type:  1
       node   50, deallocated PAW data for type:  1
       node   51, deallocated PAW data for type:  1
       node   52, deallocated PAW data for type:  1
       node   53, deallocated PAW data for type:  1
       node   54, deallocated PAW data for type:  1
       node   55, deallocated PAW data for type:  1
       node   56, deallocated PAW data for type:  1
       node   57, deallocated PAW data for type:  1
       node   58, deallocated PAW data for type:  1
       node   59, deallocated PAW data for type:  1
       node   60, deallocated PAW data for type:  1
       node   61, deallocated PAW data for type:  1
       node   62, deallocated PAW data for type:  1
       node   63, deallocated PAW data for type:  1
       node   64, deallocated PAW data for type:  1
       node   65, deallocated PAW data for type:  1
       node   66, deallocated PAW data for type:  1
       node   67, deallocated PAW data for type:  1
       node   68, deallocated PAW data for type:  1
       node   69, deallocated PAW data for type:  1
       node   70, deallocated PAW data for type:  1
       node   71, deallocated PAW data for type:  1

     total cpu time spent up to now is        3.0 secs

     per-process dynamical memory:     8.2 Mb

     Self-consistent Calculation

     iteration #  1     ecut=    55.00 Ry     beta=0.70
     Davidson diagonalization with overlap
     ethr =  1.00E-02,  avg # of iterations =  3.0

     negative rho (up, down):  2.990E-05 0.000E+00

     total cpu time spent up to now is        3.1 secs

     total energy              =     -31.68541653 Ry
     Harris-Foulkes estimate   =     -31.96772870 Ry
     estimated scf accuracy    <       0.41491118 Ry

     iteration #  2     ecut=    55.00 Ry     beta=0.70
     Davidson diagonalization with overlap
     ethr =  5.19E-03,  avg # of iterations =  3.0

     negative rho (up, down):  4.135E-05 0.000E+00

     total cpu time spent up to now is        3.2 secs

     total energy              =     -31.79510583 Ry
     Harris-Foulkes estimate   =     -31.90461382 Ry
     estimated scf accuracy    <       0.20855990 Ry

     iteration #  3     ecut=    55.00 Ry     beta=0.70
     Davidson diagonalization with overlap
     ethr =  2.61E-03,  avg # of iterations =  2.9

     negative rho (up, down):  7.292E-05 0.000E+00

     total cpu time spent up to now is        3.3 secs

     total energy              =     -31.83218480 Ry
     Harris-Foulkes estimate   =     -31.83602704 Ry
     estimated scf accuracy    <       0.00597504 Ry

     iteration #  4     ecut=    55.00 Ry     beta=0.70
     Davidson diagonalization with overlap
     ethr =  7.47E-05,  avg # of iterations =  4.2

     negative rho (up, down):  7.013E-05 0.000E+00

     total cpu time spent up to now is        3.4 secs

     total energy              =     -31.83873517 Ry
     Harris-Foulkes estimate   =     -31.84375248 Ry
     estimated scf accuracy    <       0.01328476 Ry

     iteration #  5     ecut=    55.00 Ry     beta=0.70
     Davidson diagonalization with overlap
     ethr =  7.47E-05,  avg # of iterations =  1.2

     negative rho (up, down):  7.333E-05 0.000E+00

     total cpu time spent up to now is        3.5 secs

     total energy              =     -31.83795013 Ry
     Harris-Foulkes estimate   =     -31.83922124 Ry
     estimated scf accuracy    <       0.00408659 Ry

     iteration #  6     ecut=    55.00 Ry     beta=0.70
     Davidson diagonalization with overlap
     ethr =  5.11E-05,  avg # of iterations =  2.9

     negative rho (up, down):  7.506E-05 0.000E+00

     total cpu time spent up to now is        3.6 secs

     total energy              =     -31.83863330 Ry
     Harris-Foulkes estimate   =     -31.83882508 Ry
     estimated scf accuracy    <       0.00028446 Ry

     iteration #  7     ecut=    55.00 Ry     beta=0.70
     Davidson diagonalization with overlap
     ethr =  3.56E-06,  avg # of iterations =  3.8

     negative rho (up, down):  7.504E-05 0.000E+00

     total cpu time spent up to now is        3.7 secs

     total energy              =     -31.83888539 Ry
     Harris-Foulkes estimate   =     -31.83896669 Ry
     estimated scf accuracy    <       0.00021479 Ry

     iteration #  8     ecut=    55.00 Ry     beta=0.70
     Davidson diagonalization with overlap
     ethr =  2.68E-06,  avg # of iterations =  1.0

     negative rho (up, down):  7.474E-05 0.000E+00

     total cpu time spent up to now is        3.7 secs

     total energy              =     -31.83887699 Ry
     Harris-Foulkes estimate   =     -31.83889638 Ry
     estimated scf accuracy    <       0.00005487 Ry

     iteration #  9     ecut=    55.00 Ry     beta=0.70
     Davidson diagonalization with overlap
     ethr =  6.86E-07,  avg # of iterations =  3.3

     negative rho (up, down):  7.483E-05 0.000E+00

     total cpu time spent up to now is        3.8 secs

     total energy              =     -31.83889719 Ry
     Harris-Foulkes estimate   =     -31.83889712 Ry
     estimated scf accuracy    <       0.00000058 Ry

     iteration # 10     ecut=    55.00 Ry     beta=0.70
     Davidson diagonalization with overlap
     ethr =  7.31E-09,  avg # of iterations =  4.2

     negative rho (up, down):  7.499E-05 0.000E+00

     total cpu time spent up to now is        3.9 secs

     total energy              =     -31.83889851 Ry
     Harris-Foulkes estimate   =     -31.83889877 Ry
     estimated scf accuracy    <       0.00000086 Ry

     iteration # 11     ecut=    55.00 Ry     beta=0.70
     Davidson diagonalization with overlap
     ethr =  7.31E-09,  avg # of iterations =  4.8

     negative rho (up, down):  7.498E-05 0.000E+00

     total cpu time spent up to now is        4.0 secs

     total energy              =     -31.83889986 Ry
     Harris-Foulkes estimate   =     -31.83889955 Ry
     estimated scf accuracy    <       0.00000319 Ry

     iteration # 12     ecut=    55.00 Ry     beta=0.70
     Davidson diagonalization with overlap
     ethr =  7.31E-09,  avg # of iterations =  1.0

     negative rho (up, down):  7.498E-05 0.000E+00

     total cpu time spent up to now is        4.1 secs

     total energy              =     -31.83890014 Ry
     Harris-Foulkes estimate   =     -31.83889987 Ry
     estimated scf accuracy    <       0.00000381 Ry

     iteration # 13     ecut=    55.00 Ry     beta=0.70
     Davidson diagonalization with overlap
     ethr =  7.31E-09,  avg # of iterations =  1.0

     negative rho (up, down):  7.498E-05 0.000E+00

     total cpu time spent up to now is        4.2 secs

     total energy              =     -31.83890002 Ry
     Harris-Foulkes estimate   =     -31.83890016 Ry
     estimated scf accuracy    <       0.00000455 Ry

     iteration # 14     ecut=    55.00 Ry     beta=0.70
     Davidson diagonalization with overlap
     ethr =  7.31E-09,  avg # of iterations =  1.0

     negative rho (up, down):  7.499E-05 0.000E+00

     total cpu time spent up to now is        4.3 secs

     total energy              =     -31.83890198 Ry
     Harris-Foulkes estimate   =     -31.83890003 Ry
     estimated scf accuracy    <       0.00000440 Ry

     iteration # 15     ecut=    55.00 Ry     beta=0.70
     Davidson diagonalization with overlap
     ethr =  7.31E-09,  avg # of iterations =  3.7

     negative rho (up, down):  7.498E-05 0.000E+00

     total cpu time spent up to now is        4.3 secs

     total energy              =     -31.83890187 Ry
     Harris-Foulkes estimate   =     -31.83890231 Ry
     estimated scf accuracy    <       0.00001145 Ry

     iteration # 16     ecut=    55.00 Ry     beta=0.70
     Davidson diagonalization with overlap
     ethr =  7.31E-09,  avg # of iterations =  1.0

     negative rho (up, down):  7.499E-05 0.000E+00

     total cpu time spent up to now is        4.4 secs

     total energy              =     -31.83890129 Ry
     Harris-Foulkes estimate   =     -31.83890188 Ry
     estimated scf accuracy    <       0.00001050 Ry

     iteration # 17     ecut=    55.00 Ry     beta=0.70
     Davidson diagonalization with overlap
     ethr =  7.31E-09,  avg # of iterations =  1.0

     negative rho (up, down):  7.498E-05 0.000E+00

     total cpu time spent up to now is        4.5 secs

     total energy              =     -31.83890156 Ry
     Harris-Foulkes estimate   =     -31.83890131 Ry
     estimated scf accuracy    <       0.00000910 Ry

     iteration # 18     ecut=    55.00 Ry     beta=0.70
     Davidson diagonalization with overlap
     ethr =  7.31E-09,  avg # of iterations =  1.0

     negative rho (up, down):  7.503E-05 0.000E+00

     total cpu time spent up to now is        4.6 secs

     total energy              =     -31.83889906 Ry
     Harris-Foulkes estimate   =     -31.83890156 Ry
     estimated scf accuracy    <       0.00000949 Ry

     iteration # 19     ecut=    55.00 Ry     beta=0.70
     Davidson diagonalization with overlap
     ethr =  7.31E-09,  avg # of iterations =  3.7

     negative rho (up, down):  7.501E-05 0.000E+00

     total cpu time spent up to now is        4.7 secs

     total energy              =     -31.83889927 Ry
     Harris-Foulkes estimate   =     -31.83889939 Ry
     estimated scf accuracy    <       0.00000308 Ry

     iteration # 20     ecut=    55.00 Ry     beta=0.70
     Davidson diagonalization with overlap
     ethr =  7.31E-09,  avg # of iterations =  1.0

     negative rho (up, down):  7.502E-05 0.000E+00

     total cpu time spent up to now is        4.7 secs

     total energy              =     -31.83889797 Ry
     Harris-Foulkes estimate   =     -31.83889928 Ry
     estimated scf accuracy    <       0.00000282 Ry

     iteration # 21     ecut=    55.00 Ry     beta=0.70
     Davidson diagonalization with overlap
     ethr =  7.31E-09,  avg # of iterations =  4.0

     negative rho (up, down):  7.506E-05 0.000E+00

     total cpu time spent up to now is        4.8 secs

     total energy              =     -31.83889844 Ry
     Harris-Foulkes estimate   =     -31.83889845 Ry
     estimated scf accuracy    <       0.00000003 Ry

     iteration # 22     ecut=    55.00 Ry     beta=0.70
     Davidson diagonalization with overlap
     ethr =  3.30E-10,  avg # of iterations =  4.6

     negative rho (up, down):  7.506E-05 0.000E+00

     total cpu time spent up to now is        4.9 secs

     total energy              =     -31.83889843 Ry
     Harris-Foulkes estimate   =     -31.83889850 Ry
     estimated scf accuracy    <       0.00000015 Ry

     iteration # 23     ecut=    55.00 Ry     beta=0.70
     Davidson diagonalization with overlap
     ethr =  3.30E-10,  avg # of iterations =  3.9

     negative rho (up, down):  7.507E-05 0.000E+00

     total cpu time spent up to now is        5.0 secs

     total energy              =     -31.83889845 Ry
     Harris-Foulkes estimate   =     -31.83889845 Ry
     estimated scf accuracy    <          6.2E-09 Ry

     iteration # 24     ecut=    55.00 Ry     beta=0.70
     Davidson diagonalization with overlap
     ethr =  7.72E-11,  avg # of iterations =  3.6

     negative rho (up, down):  7.506E-05 0.000E+00

     total cpu time spent up to now is        5.1 secs

     total energy              =     -31.83889845 Ry
     Harris-Foulkes estimate   =     -31.83889845 Ry
     estimated scf accuracy    <          1.4E-09 Ry

     iteration # 25     ecut=    55.00 Ry     beta=0.70
     Davidson diagonalization with overlap
     ethr =  1.76E-11,  avg # of iterations =  2.1

     negative rho (up, down):  7.506E-05 0.000E+00

     total cpu time spent up to now is        5.2 secs

     total energy              =     -31.83889845 Ry
     Harris-Foulkes estimate   =     -31.83889845 Ry
     estimated scf accuracy    <          1.2E-09 Ry

     iteration # 26     ecut=    55.00 Ry     beta=0.70
     Davidson diagonalization with overlap
     ethr =  1.46E-11,  avg # of iterations =  1.8

     negative rho (up, down):  7.506E-05 0.000E+00

     total cpu time spent up to now is        5.3 secs

     End of self-consistent calculation

          k = 0.0000 0.0000 0.0000 (  5129 PWs)   bands (ev):

   -23.4428 -11.0302  -7.1718  -7.1718

     occupation numbers 
     1.0000   1.0000   1.0000   1.0000

          k = 0.0000 0.0722 0.0000 (  5123 PWs)   bands (ev):

   -23.3679 -10.9296  -7.4918  -7.3194

     occupation numbers 
     1.0000   1.0000   1.0000   1.0000

          k = 0.0000 0.1443 0.0000 (  5123 PWs)   bands (ev):

   -23.1454 -10.6303  -8.3551  -7.7109

     occupation numbers 
     1.0000   1.0000   1.0000   1.0000

          k = 0.0000 0.2165 0.0000 (  5116 PWs)   bands (ev):

   -22.7828 -10.1407  -9.5585  -8.2329

     occupation numbers 
     1.0000   1.0000   1.0000   1.0000

          k = 0.0000 0.2887 0.0000 (  5096 PWs)   bands (ev):

   -22.2959 -10.9099  -9.4781  -8.7754

     occupation numbers 
     1.0000   1.0000   1.0000   1.0000

          k = 0.0000 0.3608 0.0000 (  5060 PWs)   bands (ev):

   -21.7155 -12.2560  -9.2587  -8.6775

     occupation numbers 
     1.0000   1.0000   1.0000   1.0000

          k = 0.0000 0.4330 0.0000 (  5062 PWs)   bands (ev):

   -21.1048 -13.4574  -9.6325  -7.8126

     occupation numbers 
     1.0000   1.0000   1.0000   1.0000

          k = 0.0000 0.5052 0.0000 (  5058 PWs)   bands (ev):

   -20.5906 -14.3416  -9.8669  -7.0511

     occupation numbers 
     1.0000   1.0000   1.0000   1.0000

          k = 0.0000-0.5774 0.0000 (  5040 PWs)   bands (ev):

   -20.3769 -14.6811  -9.9466  -6.7186

     occupation numbers 
     1.0000   1.0000   1.0000   1.0000

          k = 0.0625 0.1083 0.0000 (  5119 PWs)   bands (ev):

   -23.2192 -10.7296  -8.0591  -7.6133

     occupation numbers 
     1.0000   1.0000   1.0000   1.0000

          k = 0.0625 0.1804 0.0000 (  5112 PWs)   bands (ev):

   -22.9264 -10.3350  -9.0437  -8.1191

     occupation numbers 
     1.0000   1.0000   1.0000   1.0000

          k = 0.0625 0.2526 0.0000 (  5091 PWs)   bands (ev):

   -22.5008 -10.2803  -9.7579  -8.6930

     occupation numbers 
     1.0000   1.0000   1.0000   1.0000

          k = 0.0625 0.3248 0.0000 (  5071 PWs)   bands (ev):

   -21.9645 -11.6039  -9.2332  -9.0233

     occupation numbers 
     1.0000   1.0000   1.0000   1.0000

          k = 0.0625 0.3969 0.0000 (  5056 PWs)   bands (ev):

   -21.3618 -12.8682  -9.6777  -8.1813

     occupation numbers 
     1.0000   1.0000   1.0000   1.0000

          k = 0.0625 0.4691 0.0000 (  5051 PWs)   bands (ev):

   -20.7825 -13.9184  -9.9902  -7.3428

     occupation numbers 
     1.0000   1.0000   1.0000   1.0000

          k = 0.0625 0.5413 0.0000 (  5055 PWs)   bands (ev):

   -20.3953 -14.5495 -10.1509  -6.7518

     occupation numbers 
     1.0000   1.0000   1.0000   1.0000

          k = 0.1250 0.2165 0.0000 (  5111 PWs)   bands (ev):

   -22.5701  -9.9751  -9.8523  -8.7639

     occupation numbers 
     1.0000   1.0000   1.0000   1.0000

          k = 0.1250 0.2887 0.0000 (  5082 PWs)   bands (ev):

   -22.0926 -11.0861  -9.4359  -9.2002

     occupation numbers 
     1.0000   1.0000   1.0000   1.0000

          k = 0.1250 0.3608 0.0000 (  5068 PWs)   bands (ev):

   -21.5258 -12.2677 -10.0047  -8.4144

     occupation numbers 
     1.0000   1.0000   1.0000   1.0000

          k = 0.1250 0.4330 0.0000 (  5063 PWs)   bands (ev):

   -20.9331 -13.3641 -10.4251  -7.5689

     occupation numbers 
     1.0000   1.0000   1.0000   1.0000

          k = 0.1250 0.5052 0.0000 (  5038 PWs)   bands (ev):

   -20.4385 -14.1844 -10.6818  -6.8286

     occupation numbers 
     1.0000   1.0000   1.0000   1.0000

          k = 0.1250 0.5774 0.0000 (  5028 PWs)   bands (ev):

   -20.2347 -14.5005 -10.7681  -6.5070

     occupation numbers 
     1.0000   1.0000   1.0000   1.0000

          k = 0.1875 0.3248 0.0000 (  5053 PWs)   bands (ev):

   -21.5820 -11.9564 -10.2377  -8.4939

     occupation numbers 
     1.0000   1.0000   1.0000   1.0000

          k = 0.1875 0.3969 0.0000 (  5056 PWs)   bands (ev):

   -21.0150 -12.8685 -10.8942  -7.6912

     occupation numbers 
     1.0000   1.0000   1.0000   1.0000

          k = 0.1875 0.4691 0.0000 (  5054 PWs)   bands (ev):

   -20.4801 -13.6937 -11.3269  -6.9013

     occupation numbers 
     1.0000   1.0000   1.0000   1.0000

          k = 0.1875 0.5413 0.0000 (  5039 PWs)   bands (ev):

   -20.1304 -14.2089 -11.5379  -6.3530

     occupation numbers 
     1.0000   1.0000   1.0000   1.0000

          k = 0.2500 0.4330 0.0000 (  5050 PWs)   bands (ev):

   -20.4968 -13.3993 -11.6823  -6.9303

     occupation numbers 
     1.0000   1.0000   1.0000   1.0000

          k = 0.2500 0.5052 0.0000 (  5050 PWs)   bands (ev):

   -20.0824 -13.8183 -12.1948  -6.2852

     occupation numbers 
     1.0000   1.0000   1.0000   1.0000

          k = 0.2500 0.5774 0.0000 (  5058 PWs)   bands (ev):

   -19.9179 -13.9896 -12.3661  -6.0137

     occupation numbers 
     1.0000   1.0000   1.0000   1.0000

          k = 0.3125 0.5413 0.0000 (  5076 PWs)   bands (ev):

   -19.8425 -13.7508 -12.8209  -5.8907

     occupation numbers 
     1.0000   1.0000   1.0000   1.0000

     highest occupied level (ev):    -5.8907

!    total energy              =     -31.83889845 Ry
     Harris-Foulkes estimate   =     -31.83889845 Ry
     estimated scf accuracy    <          1.7E-10 Ry

     The total energy is the sum of the following terms:

     one-electron contribution =    -348.81549881 Ry
     hartree contribution      =     175.52451861 Ry
     xc contribution           =      -8.40422164 Ry
     ewald contribution        =     155.14919095 Ry
     one-center paw contrib.   =      -5.29288756 Ry
      -> PAW hartree energy AE =       3.32204786 Ry
      -> PAW hartree energy PS =      -3.31398752 Ry
      -> PAW xc energy AE      =      -7.70569577 Ry
      -> PAW xc energy PS      =       2.40474786 Ry
      -> total E_H with PAW    =     175.53257895 Ry
      -> total E_XC with PAW   =     -13.70516955 Ry

     convergence has been achieved in  26 iterations

     Writing output data file aiida.save
 
     init_run     :      0.61s CPU      0.62s WALL (       1 calls)
     electrons    :      2.24s CPU      2.33s WALL (       1 calls)

     Called by init_run:
     wfcinit      :      0.02s CPU      0.02s WALL (       1 calls)
     wfcinit:atom :      0.00s CPU      0.00s WALL (       5 calls)
     wfcinit:wfcr :      0.02s CPU      0.02s WALL (       5 calls)
     potinit      :      0.14s CPU      0.15s WALL (       1 calls)

     Called by electrons:
     c_bands      :      0.67s CPU      0.71s WALL (      26 calls)
     sum_band     :      0.53s CPU      0.55s WALL (      26 calls)
     v_of_rho     :      0.24s CPU      0.25s WALL (      27 calls)
     v_h          :      0.00s CPU      0.01s WALL (      27 calls)
     v_xc         :      0.24s CPU      0.24s WALL (      27 calls)
     newd         :      0.32s CPU      0.31s WALL (      27 calls)
     PAW_pot      :      0.35s CPU      0.31s WALL (      27 calls)
     mix_rho      :      0.06s CPU      0.05s WALL (      26 calls)

     Called by c_bands:
     init_us_2    :      0.02s CPU      0.03s WALL (     265 calls)
     cegterg      :      0.58s CPU      0.60s WALL (     130 calls)

     Called by sum_band:
     sum_band:bec :      0.00s CPU      0.00s WALL (     130 calls)
     addusdens    :      0.39s CPU      0.35s WALL (      26 calls)

     Called by *egterg:
     h_psi        :      0.40s CPU      0.41s WALL (     463 calls)
     s_psi        :      0.00s CPU      0.01s WALL (     463 calls)
     g_psi        :      0.01s CPU      0.00s WALL (     328 calls)
     cdiaghg      :      0.14s CPU      0.15s WALL (     458 calls)
     cegterg:over :      0.00s CPU      0.01s WALL (     328 calls)
     cegterg:upda :      0.00s CPU      0.01s WALL (     328 calls)
     cegterg:last :      0.00s CPU      0.00s WALL (     149 calls)
     cdiaghg:chol :      0.01s CPU      0.02s WALL (     458 calls)
     cdiaghg:inve :      0.00s CPU      0.00s WALL (     458 calls)
     cdiaghg:para :      0.02s CPU      0.01s WALL (     916 calls)

     Called by h_psi:
     h_psi:pot    :      0.40s CPU      0.41s WALL (     463 calls)
     h_psi:calbec :      0.01s CPU      0.01s WALL (     463 calls)
     vloc_psi     :      0.39s CPU      0.39s WALL (     463 calls)
     add_vuspsi   :      0.00s CPU      0.01s WALL (     463 calls)

     General routines
     calbec       :      0.01s CPU      0.01s WALL (     593 calls)
     fft          :      0.20s CPU      0.23s WALL (     428 calls)
     ffts         :      0.02s CPU      0.02s WALL (      53 calls)
     fftw         :      0.38s CPU      0.40s WALL (    3860 calls)
     interpolate  :      0.03s CPU      0.05s WALL (      53 calls)
     davcio       :      0.00s CPU      0.00s WALL (       5 calls)
 
     Parallel routines
     fft_scatter  :      0.25s CPU      0.27s WALL (    4341 calls)

     PAW routines
     PAW_pot      :      0.35s CPU      0.31s WALL (      27 calls)
     PAW_symme    :      0.00s CPU      0.01s WALL (      53 calls)
 
     PWSCF        :     5.37s CPU         6.73s WALL

 
   This run was terminated on:  17:26:28  28Mar2017            

=------------------------------------------------------------------------------=
   JOB DONE.
=------------------------------------------------------------------------------=
