
     Program PWSCF v.5.1 starts on  6Jan2017 at  4: 6: 6 

     This program is part of the open-source Quantum ESPRESSO suite
     for quantum simulation of materials; please cite
         "P. Giannozzi et al., J. Phys.:Condens. Matter 21 395502 (2009);
          URL http://www.quantum-espresso.org", 
     in publications or presentations arising from this work. More details at
     http://www.quantum-espresso.org/quote

     Parallel version (MPI), running on    12 processors
     R & G space division:  proc/nbgrp/npool/nimage =      12
     Reading input from aiida.in

     Current dimensions of program PWSCF are:
     Max number of different atomic species (ntypx) = 10
     Max number of k-points (npk) =  40000
     Max angular momentum in pseudopotentials (lmaxx) =  3

     Atomic positions and unit cell read from directory:
     ./out/aiida.save/
 

     Subspace diagonalization in iterative solution of the eigenvalue problem:
     scalapack distributed-memory algorithm (size of sub-group:  2*  2 procs)

 
     Parallelization info
     --------------------
     sticks:   dense  smooth     PW     G-vecs:    dense   smooth      PW
     Min          87      43     13                11951     4213     721
     Max          88      44     14                11962     4236     730
     Sum        1045     519    161               143491    50685    8709
 
 ----2D----2D----2D----2D----2D----2D
 THE CODE IS RUNNING WITH 2D CUTOFF
 ----2D----2D----2D----2D----2D----2D


     bravais-lattice index     =            0
     lattice parameter (alat)  =       6.2464  a.u.
     unit-cell volume          =    2283.3131 (a.u.)^3
     number of atoms/cell      =            4
     number of atomic types    =            1
     number of electrons       =        20.00
     number of Kohn-Sham states=           14
     kinetic-energy cutoff     =      30.0000  Ry
     charge density cutoff     =     240.0000  Ry
     Exchange-correlation      = PBE ( 1  4  3  4 0 0)

     celldm(1)=   6.246425  celldm(2)=   0.000000  celldm(3)=   0.000000
     celldm(4)=   0.000000  celldm(5)=   0.000000  celldm(6)=   0.000000

     crystal axes: (cart. coord. in units of alat)
               a(1) = (   1.000000   0.000000   0.000000 )  
               a(2) = (   0.000000   1.395974   0.000000 )  
               a(3) = (   0.000000   0.000000   6.711100 )  

     reciprocal axes: (cart. coord. in units 2 pi/alat)
               b(1) = (  1.000000  0.000000  0.000000 )  
               b(2) = (  0.000000  0.716346  0.000000 )  
               b(3) = (  0.000000  0.000000  0.149007 )  


     PseudoPot. # 1 for  P read from file:
     ./pseudo/P.pbe-n-rrkjus_psl.1.0.0.UPF
     MD5 check sum: a30a65037a8e7d889d92c7fd4a73a494
     Pseudo is Ultrasoft + core correction, Zval =  5.0
     Generated using "atomic" code by A. Dal Corso  v.5.1
     Using radial grid of 1147 points,  6 beta functions with: 
                l(1) =   0
                l(2) =   0
                l(3) =   1
                l(4) =   1
                l(5) =   2
                l(6) =   2
     Q(r) pseudized with 0 coefficients 


     atomic species   valence    mass     pseudopotential
        P              5.00    30.97376      P( 1.00)

      4 Sym. Ops., with inversion, found
          (note:  4 additional sym.ops. were found but ignored
           their fractional translations are incommensurate with FFT grid)

                                    s                        frac. trans.

      isym =  1     identity                                     

 cryst.   s( 1) = (     1          0          0      )
                  (     0          1          0      )
                  (     0          0          1      )

 cart.    s( 1) = (  1.0000000  0.0000000  0.0000000 )
                  (  0.0000000  1.0000000  0.0000000 )
                  (  0.0000000  0.0000000  1.0000000 )


      isym =  2     180 deg rotation - cart. axis [1,0,0]        

 cryst.   s( 2) = (     1          0          0      )
                  (     0         -1          0      )
                  (     0          0         -1      )

 cart.    s( 2) = (  1.0000000  0.0000000  0.0000000 )
                  (  0.0000000 -1.0000000  0.0000000 )
                  (  0.0000000  0.0000000 -1.0000000 )


      isym =  3     inversion                                    

 cryst.   s( 3) = (    -1          0          0      )
                  (     0         -1          0      )
                  (     0          0         -1      )

 cart.    s( 3) = ( -1.0000000  0.0000000  0.0000000 )
                  (  0.0000000 -1.0000000  0.0000000 )
                  (  0.0000000  0.0000000 -1.0000000 )


      isym =  4     inv. 180 deg rotation - cart. axis [1,0,0]   

 cryst.   s( 4) = (    -1          0          0      )
                  (     0          1          0      )
                  (     0          0          1      )

 cart.    s( 4) = ( -1.0000000  0.0000000  0.0000000 )
                  (  0.0000000  1.0000000  0.0000000 )
                  (  0.0000000  0.0000000  1.0000000 )


   Cartesian axes

     site n.     atom                  positions (alat units)
         1           P   tau(   1) = (   0.5000000   1.2725434   3.0363525  )
         2           P   tau(   2) = (   0.5000000   0.1234301   3.6747473  )
         3           P   tau(   3) = (   1.0000000   0.8214168   3.0363525  )
         4           P   tau(   4) = (   1.0000000   0.5745567   3.6747473  )

   Crystallographic axes

     site n.     atom                  positions (cryst. coord.)
         1           P   tau(   1) = (  0.5000000  0.9115813  0.4524374  )
         2           P   tau(   2) = (  0.5000000  0.0884187  0.5475626  )
         3           P   tau(   3) = (  1.0000000  0.5884186  0.4524374  )
         4           P   tau(   4) = (  1.0000000  0.4115814  0.5475626  )

     number of k points=   197  Marzari-Vanderbilt smearing, width (Ry)=  0.0200
                       cart. coord. in units 2pi/alat
        k(    1) = (   0.0000000   0.0000000   0.0000000), wk =   0.0101523
        k(    2) = (   0.0102041   0.0000000   0.0000000), wk =   0.0101523
        k(    3) = (   0.0204082   0.0000000   0.0000000), wk =   0.0101523
        k(    4) = (   0.0306122   0.0000000   0.0000000), wk =   0.0101523
        k(    5) = (   0.0408163   0.0000000   0.0000000), wk =   0.0101523
        k(    6) = (   0.0510204   0.0000000   0.0000000), wk =   0.0101523
        k(    7) = (   0.0612245   0.0000000   0.0000000), wk =   0.0101523
        k(    8) = (   0.0714286   0.0000000   0.0000000), wk =   0.0101523
        k(    9) = (   0.0816327   0.0000000   0.0000000), wk =   0.0101523
        k(   10) = (   0.0918367   0.0000000   0.0000000), wk =   0.0101523
        k(   11) = (   0.1020408   0.0000000   0.0000000), wk =   0.0101523
        k(   12) = (   0.1122449   0.0000000   0.0000000), wk =   0.0101523
        k(   13) = (   0.1224490   0.0000000   0.0000000), wk =   0.0101523
        k(   14) = (   0.1326531   0.0000000   0.0000000), wk =   0.0101523
        k(   15) = (   0.1428571   0.0000000   0.0000000), wk =   0.0101523
        k(   16) = (   0.1530612   0.0000000   0.0000000), wk =   0.0101523
        k(   17) = (   0.1632653   0.0000000   0.0000000), wk =   0.0101523
        k(   18) = (   0.1734694   0.0000000   0.0000000), wk =   0.0101523
        k(   19) = (   0.1836735   0.0000000   0.0000000), wk =   0.0101523
        k(   20) = (   0.1938776   0.0000000   0.0000000), wk =   0.0101523
        k(   21) = (   0.2040816   0.0000000   0.0000000), wk =   0.0101523
        k(   22) = (   0.2142857   0.0000000   0.0000000), wk =   0.0101523
        k(   23) = (   0.2244898   0.0000000   0.0000000), wk =   0.0101523
        k(   24) = (   0.2346939   0.0000000   0.0000000), wk =   0.0101523
        k(   25) = (   0.2448980   0.0000000   0.0000000), wk =   0.0101523
        k(   26) = (   0.2551020   0.0000000   0.0000000), wk =   0.0101523
        k(   27) = (   0.2653061   0.0000000   0.0000000), wk =   0.0101523
        k(   28) = (   0.2755102   0.0000000   0.0000000), wk =   0.0101523
        k(   29) = (   0.2857143   0.0000000   0.0000000), wk =   0.0101523
        k(   30) = (   0.2959184   0.0000000   0.0000000), wk =   0.0101523
        k(   31) = (   0.3061224   0.0000000   0.0000000), wk =   0.0101523
        k(   32) = (   0.3163265   0.0000000   0.0000000), wk =   0.0101523
        k(   33) = (   0.3265306   0.0000000   0.0000000), wk =   0.0101523
        k(   34) = (   0.3367347   0.0000000   0.0000000), wk =   0.0101523
        k(   35) = (   0.3469388   0.0000000   0.0000000), wk =   0.0101523
        k(   36) = (   0.3571429   0.0000000   0.0000000), wk =   0.0101523
        k(   37) = (   0.3673469   0.0000000   0.0000000), wk =   0.0101523
        k(   38) = (   0.3775510   0.0000000   0.0000000), wk =   0.0101523
        k(   39) = (   0.3877551   0.0000000   0.0000000), wk =   0.0101523
        k(   40) = (   0.3979592   0.0000000   0.0000000), wk =   0.0101523
        k(   41) = (   0.4081633   0.0000000   0.0000000), wk =   0.0101523
        k(   42) = (   0.4183673   0.0000000   0.0000000), wk =   0.0101523
        k(   43) = (   0.4285714   0.0000000   0.0000000), wk =   0.0101523
        k(   44) = (   0.4387755   0.0000000   0.0000000), wk =   0.0101523
        k(   45) = (   0.4489796   0.0000000   0.0000000), wk =   0.0101523
        k(   46) = (   0.4591837   0.0000000   0.0000000), wk =   0.0101523
        k(   47) = (   0.4693878   0.0000000   0.0000000), wk =   0.0101523
        k(   48) = (   0.4795918   0.0000000   0.0000000), wk =   0.0101523
        k(   49) = (   0.4897959   0.0000000   0.0000000), wk =   0.0101523
        k(   50) = (   0.5000000   0.0000000   0.0000000), wk =   0.0101523
        k(   51) = (   0.5000000   0.0073097   0.0000000), wk =   0.0101523
        k(   52) = (   0.5000000   0.0146193   0.0000000), wk =   0.0101523
        k(   53) = (   0.5000000   0.0219290   0.0000000), wk =   0.0101523
        k(   54) = (   0.5000000   0.0292386   0.0000000), wk =   0.0101523
        k(   55) = (   0.5000000   0.0365483   0.0000000), wk =   0.0101523
        k(   56) = (   0.5000000   0.0438579   0.0000000), wk =   0.0101523
        k(   57) = (   0.5000000   0.0511676   0.0000000), wk =   0.0101523
        k(   58) = (   0.5000000   0.0584772   0.0000000), wk =   0.0101523
        k(   59) = (   0.5000000   0.0657869   0.0000000), wk =   0.0101523
        k(   60) = (   0.5000000   0.0730965   0.0000000), wk =   0.0101523
        k(   61) = (   0.5000000   0.0804062   0.0000000), wk =   0.0101523
        k(   62) = (   0.5000000   0.0877158   0.0000000), wk =   0.0101523
        k(   63) = (   0.5000000   0.0950255   0.0000000), wk =   0.0101523
        k(   64) = (   0.5000000   0.1023351   0.0000000), wk =   0.0101523
        k(   65) = (   0.5000000   0.1096448   0.0000000), wk =   0.0101523
        k(   66) = (   0.5000000   0.1169544   0.0000000), wk =   0.0101523
        k(   67) = (   0.5000000   0.1242641   0.0000000), wk =   0.0101523
        k(   68) = (   0.5000000   0.1315737   0.0000000), wk =   0.0101523
        k(   69) = (   0.5000000   0.1388834   0.0000000), wk =   0.0101523
        k(   70) = (   0.5000000   0.1461931   0.0000000), wk =   0.0101523
        k(   71) = (   0.5000000   0.1535027   0.0000000), wk =   0.0101523
        k(   72) = (   0.5000000   0.1608124   0.0000000), wk =   0.0101523
        k(   73) = (   0.5000000   0.1681220   0.0000000), wk =   0.0101523
        k(   74) = (   0.5000000   0.1754317   0.0000000), wk =   0.0101523
        k(   75) = (   0.5000000   0.1827413   0.0000000), wk =   0.0101523
        k(   76) = (   0.5000000   0.1900510   0.0000000), wk =   0.0101523
        k(   77) = (   0.5000000   0.1973606   0.0000000), wk =   0.0101523
        k(   78) = (   0.5000000   0.2046703   0.0000000), wk =   0.0101523
        k(   79) = (   0.5000000   0.2119799   0.0000000), wk =   0.0101523
        k(   80) = (   0.5000000   0.2192896   0.0000000), wk =   0.0101523
        k(   81) = (   0.5000000   0.2265992   0.0000000), wk =   0.0101523
        k(   82) = (   0.5000000   0.2339089   0.0000000), wk =   0.0101523
        k(   83) = (   0.5000000   0.2412185   0.0000000), wk =   0.0101523
        k(   84) = (   0.5000000   0.2485282   0.0000000), wk =   0.0101523
        k(   85) = (   0.5000000   0.2558378   0.0000000), wk =   0.0101523
        k(   86) = (   0.5000000   0.2631475   0.0000000), wk =   0.0101523
        k(   87) = (   0.5000000   0.2704571   0.0000000), wk =   0.0101523
        k(   88) = (   0.5000000   0.2777668   0.0000000), wk =   0.0101523
        k(   89) = (   0.5000000   0.2850765   0.0000000), wk =   0.0101523
        k(   90) = (   0.5000000   0.2923861   0.0000000), wk =   0.0101523
        k(   91) = (   0.5000000   0.2996958   0.0000000), wk =   0.0101523
        k(   92) = (   0.5000000   0.3070054   0.0000000), wk =   0.0101523
        k(   93) = (   0.5000000   0.3143151   0.0000000), wk =   0.0101523
        k(   94) = (   0.5000000   0.3216247   0.0000000), wk =   0.0101523
        k(   95) = (   0.5000000   0.3289344   0.0000000), wk =   0.0101523
        k(   96) = (   0.5000000   0.3362440   0.0000000), wk =   0.0101523
        k(   97) = (   0.5000000   0.3435537   0.0000000), wk =   0.0101523
        k(   98) = (   0.5000000   0.3508633   0.0000000), wk =   0.0101523
        k(   99) = (   0.5000000   0.3581730   0.0000000), wk =   0.0101523
        k(  100) = (   0.4897959   0.3581730   0.0000000), wk =   0.0101523
        k(  101) = (   0.4795918   0.3581730   0.0000000), wk =   0.0101523
        k(  102) = (   0.4693878   0.3581730   0.0000000), wk =   0.0101523
        k(  103) = (   0.4591837   0.3581730   0.0000000), wk =   0.0101523
        k(  104) = (   0.4489796   0.3581730   0.0000000), wk =   0.0101523
        k(  105) = (   0.4387755   0.3581730   0.0000000), wk =   0.0101523
        k(  106) = (   0.4285714   0.3581730   0.0000000), wk =   0.0101523
        k(  107) = (   0.4183673   0.3581730   0.0000000), wk =   0.0101523
        k(  108) = (   0.4081633   0.3581730   0.0000000), wk =   0.0101523
        k(  109) = (   0.3979592   0.3581730   0.0000000), wk =   0.0101523
        k(  110) = (   0.3877551   0.3581730   0.0000000), wk =   0.0101523
        k(  111) = (   0.3775510   0.3581730   0.0000000), wk =   0.0101523
        k(  112) = (   0.3673469   0.3581730   0.0000000), wk =   0.0101523
        k(  113) = (   0.3571429   0.3581730   0.0000000), wk =   0.0101523
        k(  114) = (   0.3469388   0.3581730   0.0000000), wk =   0.0101523
        k(  115) = (   0.3367347   0.3581730   0.0000000), wk =   0.0101523
        k(  116) = (   0.3265306   0.3581730   0.0000000), wk =   0.0101523
        k(  117) = (   0.3163265   0.3581730   0.0000000), wk =   0.0101523
        k(  118) = (   0.3061224   0.3581730   0.0000000), wk =   0.0101523
        k(  119) = (   0.2959184   0.3581730   0.0000000), wk =   0.0101523
        k(  120) = (   0.2857143   0.3581730   0.0000000), wk =   0.0101523
        k(  121) = (   0.2755102   0.3581730   0.0000000), wk =   0.0101523
        k(  122) = (   0.2653061   0.3581730   0.0000000), wk =   0.0101523
        k(  123) = (   0.2551020   0.3581730   0.0000000), wk =   0.0101523
        k(  124) = (   0.2448980   0.3581730   0.0000000), wk =   0.0101523
        k(  125) = (   0.2346939   0.3581730   0.0000000), wk =   0.0101523
        k(  126) = (   0.2244898   0.3581730   0.0000000), wk =   0.0101523
        k(  127) = (   0.2142857   0.3581730   0.0000000), wk =   0.0101523
        k(  128) = (   0.2040816   0.3581730   0.0000000), wk =   0.0101523
        k(  129) = (   0.1938776   0.3581730   0.0000000), wk =   0.0101523
        k(  130) = (   0.1836735   0.3581730   0.0000000), wk =   0.0101523
        k(  131) = (   0.1734694   0.3581730   0.0000000), wk =   0.0101523
        k(  132) = (   0.1632653   0.3581730   0.0000000), wk =   0.0101523
        k(  133) = (   0.1530612   0.3581730   0.0000000), wk =   0.0101523
        k(  134) = (   0.1428571   0.3581730   0.0000000), wk =   0.0101523
        k(  135) = (   0.1326531   0.3581730   0.0000000), wk =   0.0101523
        k(  136) = (   0.1224490   0.3581730   0.0000000), wk =   0.0101523
        k(  137) = (   0.1122449   0.3581730   0.0000000), wk =   0.0101523
        k(  138) = (   0.1020408   0.3581730   0.0000000), wk =   0.0101523
        k(  139) = (   0.0918367   0.3581730   0.0000000), wk =   0.0101523
        k(  140) = (   0.0816327   0.3581730   0.0000000), wk =   0.0101523
        k(  141) = (   0.0714286   0.3581730   0.0000000), wk =   0.0101523
        k(  142) = (   0.0612245   0.3581730   0.0000000), wk =   0.0101523
        k(  143) = (   0.0510204   0.3581730   0.0000000), wk =   0.0101523
        k(  144) = (   0.0408163   0.3581730   0.0000000), wk =   0.0101523
        k(  145) = (   0.0306122   0.3581730   0.0000000), wk =   0.0101523
        k(  146) = (   0.0204082   0.3581730   0.0000000), wk =   0.0101523
        k(  147) = (   0.0102041   0.3581730   0.0000000), wk =   0.0101523
        k(  148) = (   0.0000000   0.3581730   0.0000000), wk =   0.0101523
        k(  149) = (   0.0000000   0.3508633   0.0000000), wk =   0.0101523
        k(  150) = (   0.0000000   0.3435537   0.0000000), wk =   0.0101523
        k(  151) = (   0.0000000   0.3362440   0.0000000), wk =   0.0101523
        k(  152) = (   0.0000000   0.3289344   0.0000000), wk =   0.0101523
        k(  153) = (   0.0000000   0.3216247   0.0000000), wk =   0.0101523
        k(  154) = (   0.0000000   0.3143151   0.0000000), wk =   0.0101523
        k(  155) = (   0.0000000   0.3070054   0.0000000), wk =   0.0101523
        k(  156) = (   0.0000000   0.2996958   0.0000000), wk =   0.0101523
        k(  157) = (   0.0000000   0.2923861   0.0000000), wk =   0.0101523
        k(  158) = (   0.0000000   0.2850765   0.0000000), wk =   0.0101523
        k(  159) = (   0.0000000   0.2777668   0.0000000), wk =   0.0101523
        k(  160) = (   0.0000000   0.2704571   0.0000000), wk =   0.0101523
        k(  161) = (   0.0000000   0.2631475   0.0000000), wk =   0.0101523
        k(  162) = (   0.0000000   0.2558378   0.0000000), wk =   0.0101523
        k(  163) = (   0.0000000   0.2485282   0.0000000), wk =   0.0101523
        k(  164) = (   0.0000000   0.2412185   0.0000000), wk =   0.0101523
        k(  165) = (   0.0000000   0.2339089   0.0000000), wk =   0.0101523
        k(  166) = (   0.0000000   0.2265992   0.0000000), wk =   0.0101523
        k(  167) = (   0.0000000   0.2192896   0.0000000), wk =   0.0101523
        k(  168) = (   0.0000000   0.2119799   0.0000000), wk =   0.0101523
        k(  169) = (   0.0000000   0.2046703   0.0000000), wk =   0.0101523
        k(  170) = (   0.0000000   0.1973606   0.0000000), wk =   0.0101523
        k(  171) = (   0.0000000   0.1900510   0.0000000), wk =   0.0101523
        k(  172) = (   0.0000000   0.1827413   0.0000000), wk =   0.0101523
        k(  173) = (   0.0000000   0.1754317   0.0000000), wk =   0.0101523
        k(  174) = (   0.0000000   0.1681220   0.0000000), wk =   0.0101523
        k(  175) = (   0.0000000   0.1608124   0.0000000), wk =   0.0101523
        k(  176) = (   0.0000000   0.1535027   0.0000000), wk =   0.0101523
        k(  177) = (   0.0000000   0.1461931   0.0000000), wk =   0.0101523
        k(  178) = (   0.0000000   0.1388834   0.0000000), wk =   0.0101523
        k(  179) = (   0.0000000   0.1315737   0.0000000), wk =   0.0101523
        k(  180) = (   0.0000000   0.1242641   0.0000000), wk =   0.0101523
        k(  181) = (   0.0000000   0.1169544   0.0000000), wk =   0.0101523
        k(  182) = (   0.0000000   0.1096448   0.0000000), wk =   0.0101523
        k(  183) = (   0.0000000   0.1023351   0.0000000), wk =   0.0101523
        k(  184) = (   0.0000000   0.0950255   0.0000000), wk =   0.0101523
        k(  185) = (   0.0000000   0.0877158   0.0000000), wk =   0.0101523
        k(  186) = (   0.0000000   0.0804062   0.0000000), wk =   0.0101523
        k(  187) = (   0.0000000   0.0730965   0.0000000), wk =   0.0101523
        k(  188) = (   0.0000000   0.0657869   0.0000000), wk =   0.0101523
        k(  189) = (   0.0000000   0.0584772   0.0000000), wk =   0.0101523
        k(  190) = (   0.0000000   0.0511676   0.0000000), wk =   0.0101523
        k(  191) = (   0.0000000   0.0438579   0.0000000), wk =   0.0101523
        k(  192) = (   0.0000000   0.0365483   0.0000000), wk =   0.0101523
        k(  193) = (   0.0000000   0.0292386   0.0000000), wk =   0.0101523
        k(  194) = (   0.0000000   0.0219290   0.0000000), wk =   0.0101523
        k(  195) = (   0.0000000   0.0146193   0.0000000), wk =   0.0101523
        k(  196) = (   0.0000000   0.0073097   0.0000000), wk =   0.0101523
        k(  197) = (   0.0000000   0.0000000   0.0000000), wk =   0.0101523

                       cryst. coord.
        k(    1) = (   0.0000000   0.0000000   0.0000000), wk =   0.0101523
        k(    2) = (   0.0102041   0.0000000   0.0000000), wk =   0.0101523
        k(    3) = (   0.0204082   0.0000000   0.0000000), wk =   0.0101523
        k(    4) = (   0.0306122   0.0000000   0.0000000), wk =   0.0101523
        k(    5) = (   0.0408163   0.0000000   0.0000000), wk =   0.0101523
        k(    6) = (   0.0510204   0.0000000   0.0000000), wk =   0.0101523
        k(    7) = (   0.0612245   0.0000000   0.0000000), wk =   0.0101523
        k(    8) = (   0.0714286   0.0000000   0.0000000), wk =   0.0101523
        k(    9) = (   0.0816327   0.0000000   0.0000000), wk =   0.0101523
        k(   10) = (   0.0918367   0.0000000   0.0000000), wk =   0.0101523
        k(   11) = (   0.1020408   0.0000000   0.0000000), wk =   0.0101523
        k(   12) = (   0.1122449   0.0000000   0.0000000), wk =   0.0101523
        k(   13) = (   0.1224490   0.0000000   0.0000000), wk =   0.0101523
        k(   14) = (   0.1326531   0.0000000   0.0000000), wk =   0.0101523
        k(   15) = (   0.1428571   0.0000000   0.0000000), wk =   0.0101523
        k(   16) = (   0.1530612   0.0000000   0.0000000), wk =   0.0101523
        k(   17) = (   0.1632653   0.0000000   0.0000000), wk =   0.0101523
        k(   18) = (   0.1734694   0.0000000   0.0000000), wk =   0.0101523
        k(   19) = (   0.1836735   0.0000000   0.0000000), wk =   0.0101523
        k(   20) = (   0.1938776   0.0000000   0.0000000), wk =   0.0101523
        k(   21) = (   0.2040816   0.0000000   0.0000000), wk =   0.0101523
        k(   22) = (   0.2142857   0.0000000   0.0000000), wk =   0.0101523
        k(   23) = (   0.2244898   0.0000000   0.0000000), wk =   0.0101523
        k(   24) = (   0.2346939   0.0000000   0.0000000), wk =   0.0101523
        k(   25) = (   0.2448980   0.0000000   0.0000000), wk =   0.0101523
        k(   26) = (   0.2551020   0.0000000   0.0000000), wk =   0.0101523
        k(   27) = (   0.2653061   0.0000000   0.0000000), wk =   0.0101523
        k(   28) = (   0.2755102   0.0000000   0.0000000), wk =   0.0101523
        k(   29) = (   0.2857143   0.0000000   0.0000000), wk =   0.0101523
        k(   30) = (   0.2959184   0.0000000   0.0000000), wk =   0.0101523
        k(   31) = (   0.3061224   0.0000000   0.0000000), wk =   0.0101523
        k(   32) = (   0.3163265   0.0000000   0.0000000), wk =   0.0101523
        k(   33) = (   0.3265306   0.0000000   0.0000000), wk =   0.0101523
        k(   34) = (   0.3367347   0.0000000   0.0000000), wk =   0.0101523
        k(   35) = (   0.3469388   0.0000000   0.0000000), wk =   0.0101523
        k(   36) = (   0.3571429   0.0000000   0.0000000), wk =   0.0101523
        k(   37) = (   0.3673469   0.0000000   0.0000000), wk =   0.0101523
        k(   38) = (   0.3775510   0.0000000   0.0000000), wk =   0.0101523
        k(   39) = (   0.3877551   0.0000000   0.0000000), wk =   0.0101523
        k(   40) = (   0.3979592   0.0000000   0.0000000), wk =   0.0101523
        k(   41) = (   0.4081633   0.0000000   0.0000000), wk =   0.0101523
        k(   42) = (   0.4183673   0.0000000   0.0000000), wk =   0.0101523
        k(   43) = (   0.4285714   0.0000000   0.0000000), wk =   0.0101523
        k(   44) = (   0.4387755   0.0000000   0.0000000), wk =   0.0101523
        k(   45) = (   0.4489796   0.0000000   0.0000000), wk =   0.0101523
        k(   46) = (   0.4591837   0.0000000   0.0000000), wk =   0.0101523
        k(   47) = (   0.4693878   0.0000000   0.0000000), wk =   0.0101523
        k(   48) = (   0.4795918   0.0000000   0.0000000), wk =   0.0101523
        k(   49) = (   0.4897959   0.0000000   0.0000000), wk =   0.0101523
        k(   50) = (   0.5000000   0.0000000   0.0000000), wk =   0.0101523
        k(   51) = (   0.5000000   0.0102041   0.0000000), wk =   0.0101523
        k(   52) = (   0.5000000   0.0204082   0.0000000), wk =   0.0101523
        k(   53) = (   0.5000000   0.0306122   0.0000000), wk =   0.0101523
        k(   54) = (   0.5000000   0.0408163   0.0000000), wk =   0.0101523
        k(   55) = (   0.5000000   0.0510204   0.0000000), wk =   0.0101523
        k(   56) = (   0.5000000   0.0612245   0.0000000), wk =   0.0101523
        k(   57) = (   0.5000000   0.0714286   0.0000000), wk =   0.0101523
        k(   58) = (   0.5000000   0.0816327   0.0000000), wk =   0.0101523
        k(   59) = (   0.5000000   0.0918367   0.0000000), wk =   0.0101523
        k(   60) = (   0.5000000   0.1020408   0.0000000), wk =   0.0101523
        k(   61) = (   0.5000000   0.1122449   0.0000000), wk =   0.0101523
        k(   62) = (   0.5000000   0.1224490   0.0000000), wk =   0.0101523
        k(   63) = (   0.5000000   0.1326531   0.0000000), wk =   0.0101523
        k(   64) = (   0.5000000   0.1428571   0.0000000), wk =   0.0101523
        k(   65) = (   0.5000000   0.1530612   0.0000000), wk =   0.0101523
        k(   66) = (   0.5000000   0.1632653   0.0000000), wk =   0.0101523
        k(   67) = (   0.5000000   0.1734694   0.0000000), wk =   0.0101523
        k(   68) = (   0.5000000   0.1836735   0.0000000), wk =   0.0101523
        k(   69) = (   0.5000000   0.1938776   0.0000000), wk =   0.0101523
        k(   70) = (   0.5000000   0.2040816   0.0000000), wk =   0.0101523
        k(   71) = (   0.5000000   0.2142857   0.0000000), wk =   0.0101523
        k(   72) = (   0.5000000   0.2244898   0.0000000), wk =   0.0101523
        k(   73) = (   0.5000000   0.2346939   0.0000000), wk =   0.0101523
        k(   74) = (   0.5000000   0.2448980   0.0000000), wk =   0.0101523
        k(   75) = (   0.5000000   0.2551020   0.0000000), wk =   0.0101523
        k(   76) = (   0.5000000   0.2653061   0.0000000), wk =   0.0101523
        k(   77) = (   0.5000000   0.2755102   0.0000000), wk =   0.0101523
        k(   78) = (   0.5000000   0.2857143   0.0000000), wk =   0.0101523
        k(   79) = (   0.5000000   0.2959184   0.0000000), wk =   0.0101523
        k(   80) = (   0.5000000   0.3061224   0.0000000), wk =   0.0101523
        k(   81) = (   0.5000000   0.3163265   0.0000000), wk =   0.0101523
        k(   82) = (   0.5000000   0.3265306   0.0000000), wk =   0.0101523
        k(   83) = (   0.5000000   0.3367347   0.0000000), wk =   0.0101523
        k(   84) = (   0.5000000   0.3469388   0.0000000), wk =   0.0101523
        k(   85) = (   0.5000000   0.3571429   0.0000000), wk =   0.0101523
        k(   86) = (   0.5000000   0.3673469   0.0000000), wk =   0.0101523
        k(   87) = (   0.5000000   0.3775510   0.0000000), wk =   0.0101523
        k(   88) = (   0.5000000   0.3877551   0.0000000), wk =   0.0101523
        k(   89) = (   0.5000000   0.3979592   0.0000000), wk =   0.0101523
        k(   90) = (   0.5000000   0.4081633   0.0000000), wk =   0.0101523
        k(   91) = (   0.5000000   0.4183673   0.0000000), wk =   0.0101523
        k(   92) = (   0.5000000   0.4285714   0.0000000), wk =   0.0101523
        k(   93) = (   0.5000000   0.4387755   0.0000000), wk =   0.0101523
        k(   94) = (   0.5000000   0.4489796   0.0000000), wk =   0.0101523
        k(   95) = (   0.5000000   0.4591837   0.0000000), wk =   0.0101523
        k(   96) = (   0.5000000   0.4693878   0.0000000), wk =   0.0101523
        k(   97) = (   0.5000000   0.4795918   0.0000000), wk =   0.0101523
        k(   98) = (   0.5000000   0.4897959   0.0000000), wk =   0.0101523
        k(   99) = (   0.5000000   0.5000000   0.0000000), wk =   0.0101523
        k(  100) = (   0.4897959   0.5000000   0.0000000), wk =   0.0101523
        k(  101) = (   0.4795918   0.5000000   0.0000000), wk =   0.0101523
        k(  102) = (   0.4693878   0.5000000   0.0000000), wk =   0.0101523
        k(  103) = (   0.4591837   0.5000000   0.0000000), wk =   0.0101523
        k(  104) = (   0.4489796   0.5000000   0.0000000), wk =   0.0101523
        k(  105) = (   0.4387755   0.5000000   0.0000000), wk =   0.0101523
        k(  106) = (   0.4285714   0.5000000   0.0000000), wk =   0.0101523
        k(  107) = (   0.4183673   0.5000000   0.0000000), wk =   0.0101523
        k(  108) = (   0.4081633   0.5000000   0.0000000), wk =   0.0101523
        k(  109) = (   0.3979592   0.5000000   0.0000000), wk =   0.0101523
        k(  110) = (   0.3877551   0.5000000   0.0000000), wk =   0.0101523
        k(  111) = (   0.3775510   0.5000000   0.0000000), wk =   0.0101523
        k(  112) = (   0.3673469   0.5000000   0.0000000), wk =   0.0101523
        k(  113) = (   0.3571429   0.5000000   0.0000000), wk =   0.0101523
        k(  114) = (   0.3469388   0.5000000   0.0000000), wk =   0.0101523
        k(  115) = (   0.3367347   0.5000000   0.0000000), wk =   0.0101523
        k(  116) = (   0.3265306   0.5000000   0.0000000), wk =   0.0101523
        k(  117) = (   0.3163265   0.5000000   0.0000000), wk =   0.0101523
        k(  118) = (   0.3061224   0.5000000   0.0000000), wk =   0.0101523
        k(  119) = (   0.2959184   0.5000000   0.0000000), wk =   0.0101523
        k(  120) = (   0.2857143   0.5000000   0.0000000), wk =   0.0101523
        k(  121) = (   0.2755102   0.5000000   0.0000000), wk =   0.0101523
        k(  122) = (   0.2653061   0.5000000   0.0000000), wk =   0.0101523
        k(  123) = (   0.2551020   0.5000000   0.0000000), wk =   0.0101523
        k(  124) = (   0.2448980   0.5000000   0.0000000), wk =   0.0101523
        k(  125) = (   0.2346939   0.5000000   0.0000000), wk =   0.0101523
        k(  126) = (   0.2244898   0.5000000   0.0000000), wk =   0.0101523
        k(  127) = (   0.2142857   0.5000000   0.0000000), wk =   0.0101523
        k(  128) = (   0.2040816   0.5000000   0.0000000), wk =   0.0101523
        k(  129) = (   0.1938776   0.5000000   0.0000000), wk =   0.0101523
        k(  130) = (   0.1836735   0.5000000   0.0000000), wk =   0.0101523
        k(  131) = (   0.1734694   0.5000000   0.0000000), wk =   0.0101523
        k(  132) = (   0.1632653   0.5000000   0.0000000), wk =   0.0101523
        k(  133) = (   0.1530612   0.5000000   0.0000000), wk =   0.0101523
        k(  134) = (   0.1428571   0.5000000   0.0000000), wk =   0.0101523
        k(  135) = (   0.1326531   0.5000000   0.0000000), wk =   0.0101523
        k(  136) = (   0.1224490   0.5000000   0.0000000), wk =   0.0101523
        k(  137) = (   0.1122449   0.5000000   0.0000000), wk =   0.0101523
        k(  138) = (   0.1020408   0.5000000   0.0000000), wk =   0.0101523
        k(  139) = (   0.0918367   0.5000000   0.0000000), wk =   0.0101523
        k(  140) = (   0.0816327   0.5000000   0.0000000), wk =   0.0101523
        k(  141) = (   0.0714286   0.5000000   0.0000000), wk =   0.0101523
        k(  142) = (   0.0612245   0.5000000   0.0000000), wk =   0.0101523
        k(  143) = (   0.0510204   0.5000000   0.0000000), wk =   0.0101523
        k(  144) = (   0.0408163   0.5000000   0.0000000), wk =   0.0101523
        k(  145) = (   0.0306122   0.5000000   0.0000000), wk =   0.0101523
        k(  146) = (   0.0204082   0.5000000   0.0000000), wk =   0.0101523
        k(  147) = (   0.0102041   0.5000000   0.0000000), wk =   0.0101523
        k(  148) = (   0.0000000   0.5000000   0.0000000), wk =   0.0101523
        k(  149) = (   0.0000000   0.4897959   0.0000000), wk =   0.0101523
        k(  150) = (   0.0000000   0.4795918   0.0000000), wk =   0.0101523
        k(  151) = (   0.0000000   0.4693878   0.0000000), wk =   0.0101523
        k(  152) = (   0.0000000   0.4591837   0.0000000), wk =   0.0101523
        k(  153) = (   0.0000000   0.4489796   0.0000000), wk =   0.0101523
        k(  154) = (   0.0000000   0.4387755   0.0000000), wk =   0.0101523
        k(  155) = (   0.0000000   0.4285714   0.0000000), wk =   0.0101523
        k(  156) = (   0.0000000   0.4183673   0.0000000), wk =   0.0101523
        k(  157) = (   0.0000000   0.4081633   0.0000000), wk =   0.0101523
        k(  158) = (   0.0000000   0.3979592   0.0000000), wk =   0.0101523
        k(  159) = (   0.0000000   0.3877551   0.0000000), wk =   0.0101523
        k(  160) = (   0.0000000   0.3775510   0.0000000), wk =   0.0101523
        k(  161) = (   0.0000000   0.3673469   0.0000000), wk =   0.0101523
        k(  162) = (   0.0000000   0.3571429   0.0000000), wk =   0.0101523
        k(  163) = (   0.0000000   0.3469388   0.0000000), wk =   0.0101523
        k(  164) = (   0.0000000   0.3367347   0.0000000), wk =   0.0101523
        k(  165) = (   0.0000000   0.3265306   0.0000000), wk =   0.0101523
        k(  166) = (   0.0000000   0.3163265   0.0000000), wk =   0.0101523
        k(  167) = (   0.0000000   0.3061224   0.0000000), wk =   0.0101523
        k(  168) = (   0.0000000   0.2959184   0.0000000), wk =   0.0101523
        k(  169) = (   0.0000000   0.2857143   0.0000000), wk =   0.0101523
        k(  170) = (   0.0000000   0.2755102   0.0000000), wk =   0.0101523
        k(  171) = (   0.0000000   0.2653061   0.0000000), wk =   0.0101523
        k(  172) = (   0.0000000   0.2551020   0.0000000), wk =   0.0101523
        k(  173) = (   0.0000000   0.2448980   0.0000000), wk =   0.0101523
        k(  174) = (   0.0000000   0.2346939   0.0000000), wk =   0.0101523
        k(  175) = (   0.0000000   0.2244898   0.0000000), wk =   0.0101523
        k(  176) = (   0.0000000   0.2142857   0.0000000), wk =   0.0101523
        k(  177) = (   0.0000000   0.2040816   0.0000000), wk =   0.0101523
        k(  178) = (   0.0000000   0.1938776   0.0000000), wk =   0.0101523
        k(  179) = (   0.0000000   0.1836735   0.0000000), wk =   0.0101523
        k(  180) = (   0.0000000   0.1734694   0.0000000), wk =   0.0101523
        k(  181) = (   0.0000000   0.1632653   0.0000000), wk =   0.0101523
        k(  182) = (   0.0000000   0.1530612   0.0000000), wk =   0.0101523
        k(  183) = (   0.0000000   0.1428571   0.0000000), wk =   0.0101523
        k(  184) = (   0.0000000   0.1326531   0.0000000), wk =   0.0101523
        k(  185) = (   0.0000000   0.1224490   0.0000000), wk =   0.0101523
        k(  186) = (   0.0000000   0.1122449   0.0000000), wk =   0.0101523
        k(  187) = (   0.0000000   0.1020408   0.0000000), wk =   0.0101523
        k(  188) = (   0.0000000   0.0918367   0.0000000), wk =   0.0101523
        k(  189) = (   0.0000000   0.0816327   0.0000000), wk =   0.0101523
        k(  190) = (   0.0000000   0.0714286   0.0000000), wk =   0.0101523
        k(  191) = (   0.0000000   0.0612245   0.0000000), wk =   0.0101523
        k(  192) = (   0.0000000   0.0510204   0.0000000), wk =   0.0101523
        k(  193) = (   0.0000000   0.0408163   0.0000000), wk =   0.0101523
        k(  194) = (   0.0000000   0.0306122   0.0000000), wk =   0.0101523
        k(  195) = (   0.0000000   0.0204082   0.0000000), wk =   0.0101523
        k(  196) = (   0.0000000   0.0102041   0.0000000), wk =   0.0101523
        k(  197) = (   0.0000000   0.0000000   0.0000000), wk =   0.0101523

     Dense  grid:   143491 G-vectors     FFT dimensions: (  32,  45, 216)

     Smooth grid:    50685 G-vectors     FFT dimensions: (  24,  32, 150)

     Largest allocated arrays     est. size (Mb)     dimensions
        Kohn-Sham Wavefunctions         0.12 Mb     (     554,   14)
        NL pseudopotentials             0.61 Mb     (     554,   72)
        Each V/rho on FFT grid          0.40 Mb     (   25920)
        Each G-vector array             0.09 Mb     (   11959)
        G-vector shells                 0.04 Mb     (    5718)
     Largest temporary arrays     est. size (Mb)     dimensions
        Each subspace H/S matrix        0.00 Mb     (       7,    7)
        Each <psi_i|beta_j> matrix      0.02 Mb     (      72,   14)

     The potential is recalculated from file :
     ./out/aiida.save/charge-density.xml


     negative rho (up, down):  2.212E-04 0.000E+00
     Starting wfc are   16 randomized atomic wfcs

     Band Structure Calculation
     CG style diagonalization

     Computing kpt #:     1
     total cpu time spent up to now is        2.9 secs

     Computing kpt #:     2
     total cpu time spent up to now is        3.2 secs

     Computing kpt #:     3
     total cpu time spent up to now is        3.4 secs

     Computing kpt #:     4
     total cpu time spent up to now is        3.7 secs

     Computing kpt #:     5
     total cpu time spent up to now is        3.9 secs

     Computing kpt #:     6
     total cpu time spent up to now is        4.1 secs

     Computing kpt #:     7
     total cpu time spent up to now is        4.4 secs

     Computing kpt #:     8
     total cpu time spent up to now is        4.6 secs

     Computing kpt #:     9
     total cpu time spent up to now is        4.9 secs

     Computing kpt #:    10
     total cpu time spent up to now is        5.1 secs

     Computing kpt #:    11
     total cpu time spent up to now is        5.4 secs

     Computing kpt #:    12
     total cpu time spent up to now is        5.6 secs

     Computing kpt #:    13
     total cpu time spent up to now is        5.9 secs

     Computing kpt #:    14
     total cpu time spent up to now is        6.2 secs

     Computing kpt #:    15
     total cpu time spent up to now is        6.5 secs

     Computing kpt #:    16
     c_bands:  1 eigenvalues not converged
     total cpu time spent up to now is        6.9 secs

     Computing kpt #:    17
     c_bands:  1 eigenvalues not converged
     total cpu time spent up to now is        7.2 secs

     Computing kpt #:    18
     c_bands:  2 eigenvalues not converged
     total cpu time spent up to now is        7.6 secs

     Computing kpt #:    19
     c_bands:  1 eigenvalues not converged
     total cpu time spent up to now is        7.9 secs

     Computing kpt #:    20
     total cpu time spent up to now is        8.2 secs

     Computing kpt #:    21
     total cpu time spent up to now is        8.4 secs

     Computing kpt #:    22
     total cpu time spent up to now is        8.7 secs

     Computing kpt #:    23
     total cpu time spent up to now is        8.9 secs

     Computing kpt #:    24
     total cpu time spent up to now is        9.1 secs

     Computing kpt #:    25
     total cpu time spent up to now is        9.4 secs

     Computing kpt #:    26
     total cpu time spent up to now is        9.6 secs

     Computing kpt #:    27
     total cpu time spent up to now is        9.8 secs

     Computing kpt #:    28
     total cpu time spent up to now is       10.0 secs

     Computing kpt #:    29
     total cpu time spent up to now is       10.3 secs

     Computing kpt #:    30
     total cpu time spent up to now is       10.5 secs

     Computing kpt #:    31
     total cpu time spent up to now is       10.7 secs

     Computing kpt #:    32
     total cpu time spent up to now is       11.0 secs

     Computing kpt #:    33
     total cpu time spent up to now is       11.2 secs

     Computing kpt #:    34
     total cpu time spent up to now is       11.4 secs

     Computing kpt #:    35
     total cpu time spent up to now is       11.7 secs

     Computing kpt #:    36
     total cpu time spent up to now is       11.9 secs

     Computing kpt #:    37
     total cpu time spent up to now is       12.2 secs

     Computing kpt #:    38
     total cpu time spent up to now is       12.5 secs

     Computing kpt #:    39
     total cpu time spent up to now is       12.8 secs

     Computing kpt #:    40
     total cpu time spent up to now is       13.1 secs

     Computing kpt #:    41
     c_bands:  1 eigenvalues not converged
     total cpu time spent up to now is       13.4 secs

     Computing kpt #:    42
     c_bands:  1 eigenvalues not converged
     total cpu time spent up to now is       13.7 secs

     Computing kpt #:    43
     c_bands:  1 eigenvalues not converged
     total cpu time spent up to now is       14.0 secs

     Computing kpt #:    44
     total cpu time spent up to now is       14.3 secs

     Computing kpt #:    45
     total cpu time spent up to now is       14.7 secs

     Computing kpt #:    46
     total cpu time spent up to now is       14.9 secs

     Computing kpt #:    47
     total cpu time spent up to now is       15.2 secs

     Computing kpt #:    48
     total cpu time spent up to now is       15.4 secs

     Computing kpt #:    49
     total cpu time spent up to now is       15.7 secs

     Computing kpt #:    50
     total cpu time spent up to now is       15.9 secs

     Computing kpt #:    51
     total cpu time spent up to now is       16.1 secs

     Computing kpt #:    52
     total cpu time spent up to now is       16.3 secs

     Computing kpt #:    53
     total cpu time spent up to now is       16.6 secs

     Computing kpt #:    54
     total cpu time spent up to now is       16.8 secs

     Computing kpt #:    55
     total cpu time spent up to now is       17.0 secs

     Computing kpt #:    56
     total cpu time spent up to now is       17.2 secs

     Computing kpt #:    57
     total cpu time spent up to now is       17.5 secs

     Computing kpt #:    58
     total cpu time spent up to now is       17.7 secs

     Computing kpt #:    59
     total cpu time spent up to now is       17.9 secs

     Computing kpt #:    60
     total cpu time spent up to now is       18.2 secs

     Computing kpt #:    61
     total cpu time spent up to now is       18.4 secs

     Computing kpt #:    62
     total cpu time spent up to now is       18.7 secs

     Computing kpt #:    63
     total cpu time spent up to now is       18.9 secs

     Computing kpt #:    64
     total cpu time spent up to now is       19.2 secs

     Computing kpt #:    65
     total cpu time spent up to now is       19.4 secs

     Computing kpt #:    66
     total cpu time spent up to now is       19.7 secs

     Computing kpt #:    67
     total cpu time spent up to now is       20.0 secs

     Computing kpt #:    68
     total cpu time spent up to now is       20.2 secs

     Computing kpt #:    69
     total cpu time spent up to now is       20.5 secs

     Computing kpt #:    70
     total cpu time spent up to now is       20.7 secs

     Computing kpt #:    71
     total cpu time spent up to now is       21.0 secs

     Computing kpt #:    72
     total cpu time spent up to now is       21.2 secs

     Computing kpt #:    73
     total cpu time spent up to now is       21.4 secs

     Computing kpt #:    74
     total cpu time spent up to now is       21.7 secs

     Computing kpt #:    75
     total cpu time spent up to now is       21.9 secs

     Computing kpt #:    76
     total cpu time spent up to now is       22.1 secs

     Computing kpt #:    77
     total cpu time spent up to now is       22.4 secs

     Computing kpt #:    78
     total cpu time spent up to now is       22.6 secs

     Computing kpt #:    79
     total cpu time spent up to now is       22.8 secs

     Computing kpt #:    80
     total cpu time spent up to now is       23.0 secs

     Computing kpt #:    81
     total cpu time spent up to now is       23.3 secs

     Computing kpt #:    82
     total cpu time spent up to now is       23.5 secs

     Computing kpt #:    83
     total cpu time spent up to now is       23.7 secs

     Computing kpt #:    84
     total cpu time spent up to now is       23.9 secs

     Computing kpt #:    85
     total cpu time spent up to now is       24.2 secs

     Computing kpt #:    86
     total cpu time spent up to now is       24.4 secs

     Computing kpt #:    87
     total cpu time spent up to now is       24.6 secs

     Computing kpt #:    88
     total cpu time spent up to now is       24.8 secs

     Computing kpt #:    89
     total cpu time spent up to now is       25.0 secs

     Computing kpt #:    90
     total cpu time spent up to now is       25.3 secs

     Computing kpt #:    91
     total cpu time spent up to now is       25.5 secs

     Computing kpt #:    92
     total cpu time spent up to now is       25.7 secs

     Computing kpt #:    93
     total cpu time spent up to now is       26.0 secs

     Computing kpt #:    94
     total cpu time spent up to now is       26.2 secs

     Computing kpt #:    95
     total cpu time spent up to now is       26.4 secs

     Computing kpt #:    96
     total cpu time spent up to now is       26.6 secs

     Computing kpt #:    97
     total cpu time spent up to now is       26.9 secs

     Computing kpt #:    98
     total cpu time spent up to now is       27.1 secs

     Computing kpt #:    99
     total cpu time spent up to now is       27.3 secs

     Computing kpt #:   100
     total cpu time spent up to now is       27.5 secs

     Computing kpt #:   101
     total cpu time spent up to now is       27.8 secs

     Computing kpt #:   102
     total cpu time spent up to now is       28.0 secs

     Computing kpt #:   103
     total cpu time spent up to now is       28.2 secs

     Computing kpt #:   104
     total cpu time spent up to now is       28.5 secs

     Computing kpt #:   105
     total cpu time spent up to now is       28.7 secs

     Computing kpt #:   106
     total cpu time spent up to now is       28.9 secs

     Computing kpt #:   107
     total cpu time spent up to now is       29.1 secs

     Computing kpt #:   108
     total cpu time spent up to now is       29.4 secs

     Computing kpt #:   109
     total cpu time spent up to now is       29.6 secs

     Computing kpt #:   110
     total cpu time spent up to now is       29.8 secs

     Computing kpt #:   111
     total cpu time spent up to now is       30.0 secs

     Computing kpt #:   112
     total cpu time spent up to now is       30.3 secs

     Computing kpt #:   113
     total cpu time spent up to now is       30.5 secs

     Computing kpt #:   114
     total cpu time spent up to now is       30.7 secs

     Computing kpt #:   115
     total cpu time spent up to now is       30.9 secs

     Computing kpt #:   116
     total cpu time spent up to now is       31.2 secs

     Computing kpt #:   117
     total cpu time spent up to now is       31.4 secs

     Computing kpt #:   118
     total cpu time spent up to now is       31.6 secs

     Computing kpt #:   119
     total cpu time spent up to now is       31.8 secs

     Computing kpt #:   120
     total cpu time spent up to now is       32.0 secs

     Computing kpt #:   121
     total cpu time spent up to now is       32.3 secs

     Computing kpt #:   122
     total cpu time spent up to now is       32.5 secs

     Computing kpt #:   123
     total cpu time spent up to now is       32.7 secs

     Computing kpt #:   124
     total cpu time spent up to now is       32.9 secs

     Computing kpt #:   125
     total cpu time spent up to now is       33.1 secs

     Computing kpt #:   126
     total cpu time spent up to now is       33.4 secs

     Computing kpt #:   127
     total cpu time spent up to now is       33.6 secs

     Computing kpt #:   128
     total cpu time spent up to now is       33.8 secs

     Computing kpt #:   129
     total cpu time spent up to now is       34.1 secs

     Computing kpt #:   130
     total cpu time spent up to now is       34.3 secs

     Computing kpt #:   131
     total cpu time spent up to now is       34.6 secs

     Computing kpt #:   132
     total cpu time spent up to now is       34.8 secs

     Computing kpt #:   133
     total cpu time spent up to now is       35.1 secs

     Computing kpt #:   134
     total cpu time spent up to now is       35.4 secs

     Computing kpt #:   135
     total cpu time spent up to now is       35.7 secs

     Computing kpt #:   136
     total cpu time spent up to now is       36.0 secs

     Computing kpt #:   137
     total cpu time spent up to now is       36.3 secs

     Computing kpt #:   138
     total cpu time spent up to now is       36.6 secs

     Computing kpt #:   139
     total cpu time spent up to now is       39.4 secs

     Computing kpt #:   140
     total cpu time spent up to now is       39.8 secs

     Computing kpt #:   141
     total cpu time spent up to now is       40.1 secs

     Computing kpt #:   142
     c_bands:  2 eigenvalues not converged
     total cpu time spent up to now is       40.5 secs

     Computing kpt #:   143
     c_bands:  2 eigenvalues not converged
     total cpu time spent up to now is       40.8 secs

     Computing kpt #:   144
     c_bands:  2 eigenvalues not converged
     total cpu time spent up to now is       41.2 secs

     Computing kpt #:   145
     c_bands:  2 eigenvalues not converged
     total cpu time spent up to now is       41.5 secs

     Computing kpt #:   146
     c_bands:  2 eigenvalues not converged
     total cpu time spent up to now is       41.9 secs

     Computing kpt #:   147
     c_bands:  2 eigenvalues not converged
     total cpu time spent up to now is       42.2 secs

     Computing kpt #:   148
     c_bands:  1 eigenvalues not converged
     total cpu time spent up to now is       42.5 secs

     Computing kpt #:   149
     c_bands:  1 eigenvalues not converged
     total cpu time spent up to now is       42.9 secs

     Computing kpt #:   150
     c_bands:  2 eigenvalues not converged
     total cpu time spent up to now is       43.3 secs

     Computing kpt #:   151
     total cpu time spent up to now is       43.6 secs

     Computing kpt #:   152
     c_bands:  2 eigenvalues not converged
     total cpu time spent up to now is       44.0 secs

     Computing kpt #:   153
     total cpu time spent up to now is       44.3 secs

     Computing kpt #:   154
     total cpu time spent up to now is       44.6 secs

     Computing kpt #:   155
     total cpu time spent up to now is       45.0 secs

     Computing kpt #:   156
     total cpu time spent up to now is       45.3 secs

     Computing kpt #:   157
     total cpu time spent up to now is       45.6 secs

     Computing kpt #:   158
     total cpu time spent up to now is       45.9 secs

     Computing kpt #:   159
     total cpu time spent up to now is       46.2 secs

     Computing kpt #:   160
     total cpu time spent up to now is       46.5 secs

     Computing kpt #:   161
     total cpu time spent up to now is       46.8 secs

     Computing kpt #:   162
     total cpu time spent up to now is       47.1 secs

     Computing kpt #:   163
     total cpu time spent up to now is       47.4 secs

     Computing kpt #:   164
     total cpu time spent up to now is       47.7 secs

     Computing kpt #:   165
     total cpu time spent up to now is       47.9 secs

     Computing kpt #:   166
     total cpu time spent up to now is       48.2 secs

     Computing kpt #:   167
     total cpu time spent up to now is       48.5 secs

     Computing kpt #:   168
     total cpu time spent up to now is       48.8 secs

     Computing kpt #:   169
     total cpu time spent up to now is       49.0 secs

     Computing kpt #:   170
     total cpu time spent up to now is       49.3 secs

     Computing kpt #:   171
     total cpu time spent up to now is       49.6 secs

     Computing kpt #:   172
     total cpu time spent up to now is       49.8 secs

     Computing kpt #:   173
     total cpu time spent up to now is       50.1 secs

     Computing kpt #:   174
     total cpu time spent up to now is       50.3 secs

     Computing kpt #:   175
     total cpu time spent up to now is       50.6 secs

     Computing kpt #:   176
     total cpu time spent up to now is       50.9 secs

     Computing kpt #:   177
     total cpu time spent up to now is       51.1 secs

     Computing kpt #:   178
     total cpu time spent up to now is       51.4 secs

     Computing kpt #:   179
     total cpu time spent up to now is       51.7 secs

     Computing kpt #:   180
     total cpu time spent up to now is       51.9 secs

     Computing kpt #:   181
     total cpu time spent up to now is       52.2 secs

     Computing kpt #:   182
     total cpu time spent up to now is       52.4 secs

     Computing kpt #:   183
     total cpu time spent up to now is       52.6 secs

     Computing kpt #:   184
     total cpu time spent up to now is       52.9 secs

     Computing kpt #:   185
     total cpu time spent up to now is       53.1 secs

     Computing kpt #:   186
     total cpu time spent up to now is       53.3 secs

     Computing kpt #:   187
     total cpu time spent up to now is       53.6 secs

     Computing kpt #:   188
     total cpu time spent up to now is       53.8 secs

     Computing kpt #:   189
     total cpu time spent up to now is       54.1 secs

     Computing kpt #:   190
     total cpu time spent up to now is       54.3 secs

     Computing kpt #:   191
     total cpu time spent up to now is       54.6 secs

     Computing kpt #:   192
     total cpu time spent up to now is       54.8 secs

     Computing kpt #:   193
     total cpu time spent up to now is       55.1 secs

     Computing kpt #:   194
     total cpu time spent up to now is       55.3 secs

     Computing kpt #:   195
     total cpu time spent up to now is       55.5 secs

     Computing kpt #:   196
     total cpu time spent up to now is       55.8 secs

     Computing kpt #:   197
     total cpu time spent up to now is       56.0 secs

     ethr =  2.00E-11,  avg # of iterations = 41.2

     total cpu time spent up to now is       56.0 secs

     End of band structure calculation

          k = 0.0000 0.0000 0.0000 (  6369 PWs)   bands (ev):

   -19.9711 -17.5083 -14.1853 -10.6797  -9.7359  -9.5133  -8.3553  -6.7747
    -6.6913  -5.0394  -4.1469  -3.4086  -2.3860  -1.7373

          k = 0.0102 0.0000 0.0000 (  6369 PWs)   bands (ev):

   -19.9699 -17.5070 -14.1858 -10.6787  -9.7367  -9.5122  -8.3637  -6.7836
    -6.6908  -5.0393  -4.1458  -3.3972  -2.3744  -1.7453

          k = 0.0204 0.0000 0.0000 (  6381 PWs)   bands (ev):

   -19.9662 -17.5031 -14.1871 -10.6759  -9.7392  -9.5089  -8.3886  -6.8101
    -6.6892  -5.0391  -4.1423  -3.3632  -2.3400  -1.7690

          k = 0.0306 0.0000 0.0000 (  6385 PWs)   bands (ev):

   -19.9600 -17.4967 -14.1893 -10.6712  -9.7435  -9.5035  -8.4292  -6.8529
    -6.6866  -5.0390  -4.1365  -3.3071  -2.2838  -1.8077

          k = 0.0408 0.0000 0.0000 (  6387 PWs)   bands (ev):

   -19.9513 -17.4877 -14.1924 -10.6646  -9.7498  -9.4958  -8.4842  -6.9104
    -6.6830  -5.0393  -4.1284  -3.2301  -2.2077  -1.8602

          k = 0.0510 0.0000 0.0000 (  6383 PWs)   bands (ev):

   -19.9402 -17.4761 -14.1966 -10.6562  -9.7584  -9.4860  -8.5519  -6.9806
    -6.6784  -5.0403  -4.1180  -3.1332  -2.1136  -1.9252

          k = 0.0612 0.0000 0.0000 (  6387 PWs)   bands (ev):

   -19.9266 -17.4619 -14.2020 -10.6458  -9.7696  -9.4740  -8.6307  -7.0612
    -6.6730  -5.0424  -4.1053  -3.0180  -2.0041  -2.0010

          k = 0.0714 0.0000 0.0000 (  6385 PWs)   bands (ev):

   -19.9106 -17.4451 -14.2086 -10.6337  -9.7840  -9.4599  -8.7186  -7.1495
    -6.6668  -5.0458  -4.0903  -2.8860  -2.0861  -1.8817

          k = 0.0816 0.0000 0.0000 (  6393 PWs)   bands (ev):

   -19.8921 -17.4258 -14.2166 -10.6198  -9.8021  -9.4437  -8.8138  -7.2434
    -6.6599  -5.0508  -4.0731  -2.7388  -2.1789  -1.7493

          k = 0.0918 0.0000 0.0000 (  6395 PWs)   bands (ev):

   -19.8712 -17.4039 -14.2262 -10.6040  -9.8245  -9.4253  -8.9147  -7.3402
    -6.6523  -5.0575  -4.0535  -2.5781  -2.2778  -1.6097

          k = 0.1020 0.0000 0.0000 (  6389 PWs)   bands (ev):

   -19.8478 -17.3794 -14.2376 -10.5865  -9.8521  -9.4048  -9.0195  -7.4378
    -6.6444  -5.0660  -4.0317  -2.4052  -2.3814  -1.4662

          k = 0.1122 0.0000 0.0000 (  6383 PWs)   bands (ev):

   -19.8219 -17.3524 -14.2510 -10.5673  -9.8857  -9.3822  -9.1268  -7.5341
    -6.6362  -5.0765  -4.0077  -2.4884  -2.2217  -1.3228

          k = 0.1224 0.0000 0.0000 (  6377 PWs)   bands (ev):

   -19.7936 -17.3227 -14.2667 -10.5464  -9.9261  -9.3575  -9.2351  -7.6270
    -6.6279  -5.0891  -3.9815  -2.5977  -2.0287  -1.1842

          k = 0.1327 0.0000 0.0000 (  6379 PWs)   bands (ev):

   -19.7629 -17.2906 -14.2848 -10.5238  -9.9741  -9.3434  -9.3308  -7.7147
    -6.6197  -5.1039  -3.9531  -2.7081  -1.8277  -1.0567

          k = 0.1429 0.0000 0.0000 (  6383 PWs)   bands (ev):

   -19.7298 -17.2558 -14.3057 -10.4997 -10.0304  -9.4505  -9.3020  -7.7957
    -6.6118  -5.1210  -3.9225  -2.8185  -1.6199  -0.9489

          k = 0.1531 0.0000 0.0000 (  6381 PWs)   bands (ev):

   -19.6942 -17.2186 -14.3296 -10.4740 -10.0957  -9.5554  -9.2713  -7.8687
    -6.6046  -5.1404  -3.8898  -2.9281  -1.4065  -0.8713

          k = 0.1633 0.0000 0.0000 (  6385 PWs)   bands (ev):

   -19.6562 -17.1787 -14.3569 -10.4468 -10.1702  -9.6572  -9.2386  -7.9328
    -6.5984  -5.1623  -3.8551  -3.0358  -1.1892  -0.8346

          k = 0.1735 0.0000 0.0000 (  6377 PWs)   bands (ev):

   -19.6158 -17.1363 -14.3877 -10.4183 -10.2540  -9.7551  -9.2040  -7.9875
    -6.5934  -5.1868  -3.8183  -3.1408  -0.9702  -0.8440

          k = 0.1837 0.0000 0.0000 (  6385 PWs)   bands (ev):

   -19.5731 -17.0914 -14.4223 -10.3884 -10.3469  -9.8484  -9.1675  -8.0326
    -6.5900  -5.2139  -3.7795  -3.2423  -0.8956  -0.7432

          k = 0.1939 0.0000 0.0000 (  6375 PWs)   bands (ev):

   -19.5279 -17.0439 -14.4611 -10.4483 -10.3572  -9.9364  -9.1291  -8.0683
    -6.5886  -5.2437  -3.7389  -3.3393  -0.9797  -0.8614

          k = 0.2041 0.0000 0.0000 (  6375 PWs)   bands (ev):

   -19.4804 -16.9939 -14.5041 -10.5576 -10.3250 -10.0186  -9.0890  -8.0949
    -6.5895  -5.2764  -3.6964  -3.4312  -1.0860  -0.9835

          k = 0.2143 0.0000 0.0000 (  6367 PWs)   bands (ev):

   -19.4305 -16.9414 -14.5517 -10.6739 -10.2917 -10.0945  -9.0471  -8.1133
    -6.5932  -5.3119  -3.6523  -3.5172  -1.2065  -1.1074

          k = 0.2245 0.0000 0.0000 (  6363 PWs)   bands (ev):

   -19.3783 -16.8863 -14.6039 -10.7964 -10.2575 -10.1639  -9.0036  -8.1239
    -6.6000  -5.3504  -3.6066  -3.5964  -1.3358  -1.2318

          k = 0.2347 0.0000 0.0000 (  6353 PWs)   bands (ev):

   -19.3237 -16.8287 -14.6607 -10.9241 -10.2262 -10.2225  -8.9584  -8.1277
    -6.6103  -5.3917  -3.6683  -3.5596  -1.4703  -1.3557

          k = 0.2449 0.0000 0.0000 (  6363 PWs)   bands (ev):

   -19.2668 -16.7687 -14.7223 -11.0561 -10.2815 -10.1870  -8.9118  -8.1254
    -6.6242  -5.4360  -3.7322  -3.5115  -1.6076  -1.4783

          k = 0.2551 0.0000 0.0000 (  6357 PWs)   bands (ev):

   -19.2076 -16.7061 -14.7887 -11.1918 -10.3295 -10.1510  -8.8636  -8.1177
    -6.6420  -5.4832  -3.7877  -3.4626  -1.7459  -1.5989

          k = 0.2653 0.0000 0.0000 (  6351 PWs)   bands (ev):

   -19.1462 -16.6410 -14.8596 -11.3303 -10.3703 -10.1148  -8.8141  -8.1053
    -6.6637  -5.5333  -3.8342  -3.4134  -1.8842  -1.7165

          k = 0.2755 0.0000 0.0000 (  6351 PWs)   bands (ev):

   -19.0825 -16.5734 -14.9350 -11.4710 -10.4038 -10.0786  -8.7634  -8.0889
    -6.6893  -5.5861  -3.8716  -3.3646  -2.0214  -1.8302

          k = 0.2857 0.0000 0.0000 (  6353 PWs)   bands (ev):

   -19.0165 -16.5033 -15.0147 -11.6133 -10.4303 -10.0427  -8.7115  -8.0692
    -6.7185  -5.6416  -3.8997  -3.3169  -2.1570  -1.9389

          k = 0.2959 0.0000 0.0000 (  6345 PWs)   bands (ev):

   -18.9483 -16.4308 -15.0985 -11.7569 -10.4498 -10.0073  -8.6586  -8.0466
    -6.7510  -5.6997  -3.9185  -3.2718  -2.2902  -2.0410

          k = 0.3061 0.0000 0.0000 (  6341 PWs)   bands (ev):

   -18.8779 -16.3558 -15.1861 -11.9011 -10.4627  -9.9727  -8.6047  -8.0217
    -6.7862  -5.7601  -3.9282  -3.2311  -2.4206  -2.1343

          k = 0.3163 0.0000 0.0000 (  6337 PWs)   bands (ev):

   -18.8053 -16.2783 -15.2771 -12.0457 -10.4692  -9.9394  -8.5502  -7.9950
    -6.8235  -5.8226  -3.9289  -3.1973  -2.5476  -2.2159

          k = 0.3265 0.0000 0.0000 (  6329 PWs)   bands (ev):

   -18.7306 -16.1984 -15.3713 -12.1903 -10.4696  -9.9075  -8.4951  -7.9670
    -6.8622  -5.8871  -3.9210  -3.1739  -2.6710  -2.2823

          k = 0.3367 0.0000 0.0000 (  6335 PWs)   bands (ev):

   -18.6538 -16.1161 -15.4684 -12.3347 -10.4642  -9.8777  -8.4396  -7.9381
    -6.9013  -5.9534  -3.9050  -3.1646  -2.7902  -2.3294

          k = 0.3469 0.0000 0.0000 (  6309 PWs)   bands (ev):

   -18.5748 -16.0313 -15.5680 -12.4786 -10.4536  -9.8502  -8.3839  -7.9089
    -6.9400  -6.0210  -3.8812  -3.1723  -2.9048  -2.3540

          k = 0.3571 0.0000 0.0000 (  6317 PWs)   bands (ev):

   -18.4938 -15.9441 -15.6697 -12.6219 -10.4379  -9.8256  -8.3283  -7.8797
    -6.9774  -6.0899  -3.8502  -3.1976  -3.0144  -2.3552

          k = 0.3673 0.0000 0.0000 (  6313 PWs)   bands (ev):

   -18.4108 -15.8546 -15.7734 -12.7642 -10.4177  -9.8042  -8.2730  -7.8511
    -7.0125  -6.1595  -3.8123  -3.2381  -3.1187  -2.3354

          k = 0.3776 0.0000 0.0000 (  6323 PWs)   bands (ev):

   -18.3258 -15.8786 -15.7626 -12.9055 -10.3934  -9.7866  -8.2182  -7.8235
    -7.0443  -6.2298  -3.7681  -3.2895  -3.2171  -2.2982

          k = 0.3878 0.0000 0.0000 (  6327 PWs)   bands (ev):

   -18.2389 -15.9850 -15.6683 -13.0456 -10.3653  -9.7732  -8.1643  -7.7974
    -7.0721  -6.3002  -3.7181  -3.3476  -3.3093  -2.2478

          k = 0.3980 0.0000 0.0000 (  6311 PWs)   bands (ev):

   -18.1501 -16.0924 -15.5717 -13.1843 -10.3339  -9.7642  -8.1116  -7.7733
    -7.0950  -6.3704  -3.6625  -3.4086  -3.3948  -2.1873

          k = 0.4082 0.0000 0.0000 (  6315 PWs)   bands (ev):

   -18.0594 -16.2006 -15.4727 -13.3217 -10.2996  -9.7602  -8.0604  -7.7516
    -7.1123  -6.4402  -3.6020  -3.4733  -3.4700  -2.1193

          k = 0.4184 0.0000 0.0000 (  6313 PWs)   bands (ev):

   -17.9670 -16.3092 -15.3713 -13.4575 -10.2629  -9.7612  -8.0111  -7.7327
    -7.1235  -6.5090  -3.5442  -3.5367  -3.5294  -2.0722

          k = 0.4286 0.0000 0.0000 (  6303 PWs)   bands (ev):

   -17.8728 -16.4180 -15.2677 -13.5917 -10.2242  -9.7673  -7.9641  -7.7172
    -7.1282  -6.5765  -3.6073  -3.5855  -3.4670  -2.1782

          k = 0.4388 0.0000 0.0000 (  6303 PWs)   bands (ev):

   -17.7769 -16.5269 -15.1618 -13.7242 -10.1840  -9.7787  -7.9196  -7.7054
    -7.1261  -6.6422  -3.6620  -3.6370  -3.3933  -2.2831

          k = 0.4490 0.0000 0.0000 (  6298 PWs)   bands (ev):

   -17.6794 -16.6356 -15.0537 -13.8549 -10.1428  -9.7950  -7.8782  -7.6978
    -7.1171  -6.7058  -3.7082  -3.6829  -3.3158  -2.3869

          k = 0.4592 0.0000 0.0000 (  6312 PWs)   bands (ev):

   -17.5804 -16.7440 -14.9433 -13.9839 -10.1011  -9.8162  -7.8403  -7.6945
    -7.1013  -6.7668  -3.7456  -3.7224  -3.2349  -2.4892

          k = 0.4694 0.0000 0.0000 (  6316 PWs)   bands (ev):

   -17.4799 -16.8518 -14.8308 -14.1109 -10.0594  -9.8417  -7.8061  -7.6960
    -7.0788  -6.8246  -3.7739  -3.7548  -3.1507  -2.5900

          k = 0.4796 0.0000 0.0000 (  6316 PWs)   bands (ev):

   -17.3781 -16.9589 -14.7160 -14.2360 -10.0183  -9.8713  -7.7761  -7.7022
    -7.0499  -6.8789  -3.7930  -3.7795  -3.0634  -2.6890

          k = 0.4898 0.0000 0.0000 (  6332 PWs)   bands (ev):

   -17.2749 -17.0653 -14.5991 -14.3591  -9.9784  -9.9043  -7.7505  -7.7134
    -7.0150  -6.9290  -3.8030  -3.7960  -2.9735  -2.7860

          k = 0.5000 0.0000 0.0000 (  6334 PWs)   bands (ev):

   -17.1706 -17.1706 -14.4801 -14.4801  -9.9402  -9.9402  -7.7295  -7.7295
    -6.9746  -6.9746  -3.8040  -3.8040  -2.8809  -2.8809

          k = 0.5000 0.0073 0.0000 (  6322 PWs)   bands (ev):

   -17.1703 -17.1703 -14.4804 -14.4804  -9.9408  -9.9408  -7.7332  -7.7332
    -6.9710  -6.9710  -3.8055  -3.8055  -2.8760  -2.8760

          k = 0.5000 0.0146 0.0000 (  6326 PWs)   bands (ev):

   -17.1695 -17.1694 -14.4812 -14.4812  -9.9427  -9.9427  -7.7440  -7.7440
    -6.9607  -6.9607  -3.8098  -3.8098  -2.8612  -2.8612

          k = 0.5000 0.0219 0.0000 (  6318 PWs)   bands (ev):

   -17.1680 -17.1680 -14.4825 -14.4825  -9.9458  -9.9458  -7.7613  -7.7613
    -6.9442  -6.9442  -3.8165  -3.8165  -2.8373  -2.8373

          k = 0.5000 0.0292 0.0000 (  6322 PWs)   bands (ev):

   -17.1659 -17.1659 -14.4843 -14.4843  -9.9501  -9.9501  -7.7844  -7.7844
    -6.9225  -6.9225  -3.8246  -3.8246  -2.8051  -2.8051

          k = 0.5000 0.0365 0.0000 (  6314 PWs)   bands (ev):

   -17.1633 -17.1633 -14.4867 -14.4867  -9.9555  -9.9555  -7.8124  -7.8124
    -6.8964  -6.8964  -3.8335  -3.8334  -2.7655  -2.7655

          k = 0.5000 0.0439 0.0000 (  6322 PWs)   bands (ev):

   -17.1601 -17.1600 -14.4896 -14.4896  -9.9620  -9.9620  -7.8443  -7.8443
    -6.8670  -6.8669  -3.8420  -3.8420  -2.7195  -2.7195

          k = 0.5000 0.0512 0.0000 (  6314 PWs)   bands (ev):

   -17.1563 -17.1563 -14.4930 -14.4930  -9.9695  -9.9694  -7.8795  -7.8795
    -6.8351  -6.8351  -3.8493  -3.8493  -2.6683  -2.6683

          k = 0.5000 0.0585 0.0000 (  6302 PWs)   bands (ev):

   -17.1519 -17.1519 -14.4969 -14.4969  -9.9778  -9.9778  -7.9173  -7.9173
    -6.8016  -6.8015  -3.8547  -3.8547  -2.6127  -2.6127

          k = 0.5000 0.0658 0.0000 (  6310 PWs)   bands (ev):

   -17.1470 -17.1470 -14.5013 -14.5013  -9.9869  -9.9869  -7.9572  -7.9572
    -6.7670  -6.7670  -3.8574  -3.8574  -2.5539  -2.5539

          k = 0.5000 0.0731 0.0000 (  6302 PWs)   bands (ev):

   -17.1416 -17.1416 -14.5063 -14.5063  -9.9967  -9.9967  -7.9988  -7.9988
    -6.7320  -6.7320  -3.8569  -3.8569  -2.4929  -2.4929

          k = 0.5000 0.0804 0.0000 (  6302 PWs)   bands (ev):

   -17.1357 -17.1356 -14.5118 -14.5118 -10.0070 -10.0070  -8.0418  -8.0418
    -6.6971  -6.6971  -3.8527  -3.8527  -2.4306  -2.4306

          k = 0.5000 0.0877 0.0000 (  6298 PWs)   bands (ev):

   -17.1292 -17.1292 -14.5178 -14.5178 -10.0177 -10.0177  -8.0859  -8.0859
    -6.6626  -6.6626  -3.8445  -3.8445  -2.3681  -2.3681

          k = 0.5000 0.0950 0.0000 (  6302 PWs)   bands (ev):

   -17.1222 -17.1222 -14.5242 -14.5242 -10.0287 -10.0287  -8.1310  -8.1310
    -6.6288  -6.6288  -3.8319  -3.8319  -2.3066  -2.3066

          k = 0.5000 0.1023 0.0000 (  6298 PWs)   bands (ev):

   -17.1148 -17.1148 -14.5312 -14.5312 -10.0399 -10.0399  -8.1769  -8.1769
    -6.5960  -6.5960  -3.8147  -3.8147  -2.2475  -2.2475

          k = 0.5000 0.1096 0.0000 (  6290 PWs)   bands (ev):

   -17.1069 -17.1069 -14.5387 -14.5387 -10.0510 -10.0510  -8.2235  -8.2235
    -6.5644  -6.5644  -3.7927  -3.7927  -2.1920  -2.1920

          k = 0.5000 0.1170 0.0000 (  6282 PWs)   bands (ev):

   -17.0986 -17.0986 -14.5466 -14.5466 -10.0621 -10.0621  -8.2706  -8.2706
    -6.5342  -6.5342  -3.7661  -3.7661  -2.1415  -2.1415

          k = 0.5000 0.1243 0.0000 (  6286 PWs)   bands (ev):

   -17.0899 -17.0899 -14.5550 -14.5550 -10.0729 -10.0729  -8.3182  -8.3182
    -6.5055  -6.5054  -3.7347  -3.7347  -2.0971  -2.0971

          k = 0.5000 0.1316 0.0000 (  6288 PWs)   bands (ev):

   -17.0808 -17.0808 -14.5639 -14.5639 -10.0834 -10.0833  -8.3662  -8.3662
    -6.4782  -6.4782  -3.6987  -3.6987  -2.0598  -2.0598

          k = 0.5000 0.1389 0.0000 (  6284 PWs)   bands (ev):

   -17.0713 -17.0713 -14.5732 -14.5732 -10.0933 -10.0933  -8.4146  -8.4146
    -6.4526  -6.4526  -3.6582  -3.6582  -2.0297  -2.0297

          k = 0.5000 0.1462 0.0000 (  6284 PWs)   bands (ev):

   -17.0615 -17.0615 -14.5829 -14.5829 -10.1027 -10.1027  -8.4632  -8.4632
    -6.4285  -6.4285  -3.6134  -3.6134  -2.0068  -2.0068

          k = 0.5000 0.1535 0.0000 (  6292 PWs)   bands (ev):

   -17.0514 -17.0514 -14.5929 -14.5929 -10.1113 -10.1113  -8.5121  -8.5120
    -6.4060  -6.4060  -3.5647  -3.5647  -1.9903  -1.9903

          k = 0.5000 0.1608 0.0000 (  6292 PWs)   bands (ev):

   -17.0410 -17.0410 -14.6033 -14.6033 -10.1191 -10.1191  -8.5610  -8.5610
    -6.3849  -6.3849  -3.5122  -3.5122  -1.9792  -1.9792

          k = 0.5000 0.1681 0.0000 (  6288 PWs)   bands (ev):

   -17.0305 -17.0304 -14.6141 -14.6141 -10.1260 -10.1260  -8.6101  -8.6101
    -6.3653  -6.3653  -3.4566  -3.4566  -1.9723  -1.9723

          k = 0.5000 0.1754 0.0000 (  6292 PWs)   bands (ev):

   -17.0197 -17.0196 -14.6251 -14.6251 -10.1320 -10.1319  -8.6592  -8.6592
    -6.3470  -6.3470  -3.3982  -3.3982  -1.9686  -1.9686

          k = 0.5000 0.1827 0.0000 (  6306 PWs)   bands (ev):

   -17.0087 -17.0087 -14.6364 -14.6364 -10.1368 -10.1368  -8.7083  -8.7083
    -6.3299  -6.3299  -3.3375  -3.3375  -1.9669  -1.9669

          k = 0.5000 0.1901 0.0000 (  6302 PWs)   bands (ev):

   -16.9976 -16.9976 -14.6478 -14.6478 -10.1405 -10.1405  -8.7573  -8.7573
    -6.3140  -6.3140  -3.2752  -3.2752  -1.9661  -1.9661

          k = 0.5000 0.1974 0.0000 (  6294 PWs)   bands (ev):

   -16.9865 -16.9865 -14.6595 -14.6595 -10.1430 -10.1430  -8.8061  -8.8061
    -6.2992  -6.2992  -3.2119  -3.2119  -1.9653  -1.9653

          k = 0.5000 0.2047 0.0000 (  6280 PWs)   bands (ev):

   -16.9753 -16.9753 -14.6712 -14.6712 -10.1442 -10.1442  -8.8547  -8.8547
    -6.2854  -6.2854  -3.1485  -3.1485  -1.9633  -1.9633

          k = 0.5000 0.2120 0.0000 (  6272 PWs)   bands (ev):

   -16.9642 -16.9641 -14.6830 -14.6830 -10.1441 -10.1441  -8.9029  -8.9029
    -6.2725  -6.2725  -3.0857  -3.0857  -1.9593  -1.9593

          k = 0.5000 0.2193 0.0000 (  6284 PWs)   bands (ev):

   -16.9531 -16.9530 -14.6948 -14.6948 -10.1426 -10.1426  -8.9508  -8.9508
    -6.2605  -6.2605  -3.0247  -3.0247  -1.9522  -1.9522

          k = 0.5000 0.2266 0.0000 (  6294 PWs)   bands (ev):

   -16.9421 -16.9421 -14.7066 -14.7066 -10.1398 -10.1398  -8.9983  -8.9982
    -6.2493  -6.2493  -2.9664  -2.9664  -1.9410  -1.9410

          k = 0.5000 0.2339 0.0000 (  6282 PWs)   bands (ev):

   -16.9313 -16.9313 -14.7182 -14.7182 -10.1356 -10.1356  -9.0452  -9.0451
    -6.2388  -6.2388  -2.9119  -2.9119  -1.9246  -1.9246

          k = 0.5000 0.2412 0.0000 (  6278 PWs)   bands (ev):

   -16.9207 -16.9207 -14.7297 -14.7297 -10.1300 -10.1300  -9.0914  -9.0914
    -6.2290  -6.2290  -2.8622  -2.8622  -1.9022  -1.9022

          k = 0.5000 0.2485 0.0000 (  6278 PWs)   bands (ev):

   -16.9104 -16.9103 -14.7409 -14.7409 -10.1230 -10.1230  -9.1370  -9.1370
    -6.2198  -6.2198  -2.8181  -2.8181  -1.8732  -1.8732

          k = 0.5000 0.2558 0.0000 (  6270 PWs)   bands (ev):

   -16.9004 -16.9003 -14.7518 -14.7518 -10.1147 -10.1147  -9.1818  -9.1818
    -6.2113  -6.2113  -2.7802  -2.7802  -1.8373  -1.8373

          k = 0.5000 0.2631 0.0000 (  6282 PWs)   bands (ev):

   -16.8907 -16.8907 -14.7623 -14.7623 -10.1050 -10.1050  -9.2257  -9.2257
    -6.2034  -6.2034  -2.7487  -2.7487  -1.7946  -1.7946

          k = 0.5000 0.2705 0.0000 (  6290 PWs)   bands (ev):

   -16.8816 -16.8816 -14.7724 -14.7724 -10.0940 -10.0940  -9.2686  -9.2685
    -6.1961  -6.1961  -2.7232  -2.7232  -1.7457  -1.7457

          k = 0.5000 0.2778 0.0000 (  6298 PWs)   bands (ev):

   -16.8729 -16.8729 -14.7820 -14.7820 -10.0819 -10.0819  -9.3103  -9.3103
    -6.1893  -6.1893  -2.7034  -2.7034  -1.6917  -1.6917

          k = 0.5000 0.2851 0.0000 (  6302 PWs)   bands (ev):

   -16.8648 -16.8647 -14.7910 -14.7910 -10.0686 -10.0686  -9.3507  -9.3507
    -6.1832  -6.1832  -2.6884  -2.6884  -1.6337  -1.6337

          k = 0.5000 0.2924 0.0000 (  6310 PWs)   bands (ev):

   -16.8572 -16.8572 -14.7994 -14.7994 -10.0544 -10.0544  -9.3896  -9.3896
    -6.1776  -6.1776  -2.6773  -2.6773  -1.5734  -1.5734

          k = 0.5000 0.2997 0.0000 (  6298 PWs)   bands (ev):

   -16.8503 -16.8503 -14.8071 -14.8071 -10.0393 -10.0393  -9.4268  -9.4268
    -6.1726  -6.1725  -2.6695  -2.6695  -1.5122  -1.5122

          k = 0.5000 0.3070 0.0000 (  6306 PWs)   bands (ev):

   -16.8441 -16.8441 -14.8140 -14.8140 -10.0238 -10.0238  -9.4621  -9.4621
    -6.1681  -6.1681  -2.6642  -2.6642  -1.4519  -1.4519

          k = 0.5000 0.3143 0.0000 (  6308 PWs)   bands (ev):

   -16.8386 -16.8386 -14.8201 -14.8201 -10.0080 -10.0080  -9.4949  -9.4949
    -6.1642  -6.1642  -2.6607  -2.6607  -1.3942  -1.3942

          k = 0.5000 0.3216 0.0000 (  6308 PWs)   bands (ev):

   -16.8339 -16.8339 -14.8253 -14.8253  -9.9925  -9.9925  -9.5250  -9.5250
    -6.1609  -6.1609  -2.6586  -2.6585  -1.3409  -1.3409

          k = 0.5000 0.3289 0.0000 (  6316 PWs)   bands (ev):

   -16.8300 -16.8300 -14.8297 -14.8297  -9.9778  -9.9778  -9.5515  -9.5515
    -6.1582  -6.1582  -2.6573  -2.6573  -1.2938  -1.2938

          k = 0.5000 0.3362 0.0000 (  6312 PWs)   bands (ev):

   -16.8270 -16.8270 -14.8331 -14.8331  -9.9648  -9.9648  -9.5738  -9.5738
    -6.1561  -6.1561  -2.6567  -2.6567  -1.2547  -1.2547

          k = 0.5000 0.3436 0.0000 (  6312 PWs)   bands (ev):

   -16.8248 -16.8248 -14.8356 -14.8356  -9.9544  -9.9544  -9.5908  -9.5908
    -6.1546  -6.1546  -2.6564  -2.6564  -1.2253  -1.2253

          k = 0.5000 0.3509 0.0000 (  6312 PWs)   bands (ev):

   -16.8234 -16.8234 -14.8371 -14.8371  -9.9477  -9.9476  -9.6016  -9.6016
    -6.1537  -6.1537  -2.6562  -2.6562  -1.2070  -1.2070

          k = 0.5000 0.3582 0.0000 (  6320 PWs)   bands (ev):

   -16.8230 -16.8230 -14.8376 -14.8376  -9.9453  -9.9453  -9.6053  -9.6053
    -6.1534  -6.1534  -2.6562  -2.6562  -1.2008  -1.2008

          k = 0.4898 0.3582 0.0000 (  6312 PWs)   bands (ev):

   -16.8284 -16.8284 -14.8310 -14.8310  -9.9656  -9.9656  -9.5828  -9.5828
    -6.1555  -6.1555  -2.6529  -2.6529  -1.2063  -1.2063

          k = 0.4796 0.3582 0.0000 (  6316 PWs)   bands (ev):

   -16.8445 -16.8445 -14.8115 -14.8115 -10.0153 -10.0153  -9.5264  -9.5264
    -6.1618  -6.1618  -2.6431  -2.6431  -1.2222  -1.2222

          k = 0.4694 0.3582 0.0000 (  6320 PWs)   bands (ev):

   -16.8706 -16.8706 -14.7799 -14.7798 -10.0784 -10.0784  -9.4522  -9.4522
    -6.1721  -6.1721  -2.6270  -2.6270  -1.2476  -1.2476

          k = 0.4592 0.3582 0.0000 (  6320 PWs)   bands (ev):

   -16.9056 -16.9056 -14.7371 -14.7371 -10.1461 -10.1461  -9.3689  -9.3689
    -6.1862  -6.1862  -2.6049  -2.6049  -1.2808  -1.2808

          k = 0.4490 0.3582 0.0000 (  6300 PWs)   bands (ev):

   -16.9485 -16.9484 -14.6845 -14.6845 -10.2145 -10.2145  -9.2805  -9.2805
    -6.2039  -6.2038  -2.5773  -2.5773  -1.3201  -1.3201

          k = 0.4388 0.3582 0.0000 (  6296 PWs)   bands (ev):

   -16.9978 -16.9978 -14.6236 -14.6236 -10.2814 -10.2814  -9.1889  -9.1889
    -6.2247  -6.2246  -2.5448  -2.5448  -1.3635  -1.3635

          k = 0.4286 0.3582 0.0000 (  6302 PWs)   bands (ev):

   -17.0526 -17.0526 -14.5556 -14.5556 -10.3458 -10.3458  -9.0953  -9.0953
    -6.2482  -6.2482  -2.5082  -2.5082  -1.4094  -1.4094

          k = 0.4184 0.3582 0.0000 (  6314 PWs)   bands (ev):

   -17.1116 -17.1116 -14.4820 -14.4820 -10.4068 -10.4068  -9.0004  -9.0004
    -6.2741  -6.2741  -2.4683  -2.4683  -1.4560  -1.4560

          k = 0.4082 0.3582 0.0000 (  6318 PWs)   bands (ev):

   -17.1739 -17.1739 -14.4041 -14.4041 -10.4637 -10.4637  -8.9049  -8.9049
    -6.3017  -6.3017  -2.4264  -2.4264  -1.5018  -1.5018

          k = 0.3980 0.3582 0.0000 (  6322 PWs)   bands (ev):

   -17.2386 -17.2386 -14.3231 -14.3231 -10.5160 -10.5160  -8.8092  -8.8092
    -6.3307  -6.3307  -2.3837  -2.3837  -1.5450  -1.5450

          k = 0.3878 0.3582 0.0000 (  6320 PWs)   bands (ev):

   -17.3050 -17.3050 -14.2400 -14.2400 -10.5631 -10.5631  -8.7139  -8.7139
    -6.3603  -6.3603  -2.3421  -2.3420  -1.5839  -1.5839

          k = 0.3776 0.3582 0.0000 (  6340 PWs)   bands (ev):

   -17.3725 -17.3725 -14.1559 -14.1559 -10.6042 -10.6042  -8.6194  -8.6194
    -6.3902  -6.3902  -2.3034  -2.3034  -1.6166  -1.6166

          k = 0.3673 0.3582 0.0000 (  6332 PWs)   bands (ev):

   -17.4406 -17.4405 -14.0719 -14.0719 -10.6390 -10.6390  -8.5264  -8.5264
    -6.4195  -6.4195  -2.2700  -2.2700  -1.6410  -1.6410

          k = 0.3571 0.3582 0.0000 (  6340 PWs)   bands (ev):

   -17.5088 -17.5088 -13.9890 -13.9890 -10.6666 -10.6666  -8.4355  -8.4355
    -6.4478  -6.4478  -2.2443  -2.2443  -1.6549  -1.6549

          k = 0.3469 0.3582 0.0000 (  6336 PWs)   bands (ev):

   -17.5768 -17.5768 -13.9081 -13.9081 -10.6864 -10.6864  -8.3472  -8.3472
    -6.4742  -6.4742  -2.2280  -2.2280  -1.6570  -1.6570

          k = 0.3367 0.3582 0.0000 (  6334 PWs)   bands (ev):

   -17.6444 -17.6444 -13.8302 -13.8302 -10.6979 -10.6979  -8.2623  -8.2623
    -6.4982  -6.4982  -2.2216  -2.2216  -1.6474  -1.6474

          k = 0.3265 0.3582 0.0000 (  6350 PWs)   bands (ev):

   -17.7112 -17.7112 -13.7561 -13.7561 -10.7002 -10.7002  -8.1817  -8.1817
    -6.5189  -6.5189  -2.2240  -2.2240  -1.6277  -1.6277

          k = 0.3163 0.3582 0.0000 (  6350 PWs)   bands (ev):

   -17.7770 -17.7770 -13.6866 -13.6866 -10.6928 -10.6928  -8.1062  -8.1062
    -6.5355  -6.5355  -2.2330  -2.2330  -1.6005  -1.6005

          k = 0.3061 0.3582 0.0000 (  6338 PWs)   bands (ev):

   -17.8416 -17.8416 -13.6226 -13.6226 -10.6751 -10.6751  -8.0366  -8.0366
    -6.5473  -6.5473  -2.2462  -2.2462  -1.5688  -1.5688

          k = 0.2959 0.3582 0.0000 (  6346 PWs)   bands (ev):

   -17.9050 -17.9049 -13.5645 -13.5645 -10.6467 -10.6467  -7.9739  -7.9739
    -6.5535  -6.5534  -2.2613  -2.2613  -1.5354  -1.5353

          k = 0.2857 0.3582 0.0000 (  6362 PWs)   bands (ev):

   -17.9668 -17.9668 -13.5128 -13.5128 -10.6074 -10.6074  -7.9188  -7.9188
    -6.5534  -6.5534  -2.2767  -2.2767  -1.5022  -1.5022

          k = 0.2755 0.3582 0.0000 (  6350 PWs)   bands (ev):

   -18.0272 -18.0272 -13.4678 -13.4678 -10.5570 -10.5570  -7.8719  -7.8719
    -6.5468  -6.5468  -2.2910  -2.2910  -1.4711  -1.4711

          k = 0.2653 0.3582 0.0000 (  6342 PWs)   bands (ev):

   -18.0858 -18.0858 -13.4295 -13.4295 -10.4957 -10.4957  -7.8336  -7.8336
    -6.5335  -6.5335  -2.3033  -2.3033  -1.4432  -1.4431

          k = 0.2551 0.3582 0.0000 (  6354 PWs)   bands (ev):

   -18.1427 -18.1427 -13.3977 -13.3977 -10.4236 -10.4236  -7.8038  -7.8038
    -6.5137  -6.5137  -2.3129  -2.3129  -1.4192  -1.4192

          k = 0.2449 0.3582 0.0000 (  6350 PWs)   bands (ev):

   -18.1978 -18.1978 -13.3723 -13.3723 -10.3413 -10.3413  -7.7821  -7.7821
    -6.4882  -6.4881  -2.3193  -2.3193  -1.3998  -1.3998

          k = 0.2347 0.3582 0.0000 (  6336 PWs)   bands (ev):

   -18.2510 -18.2509 -13.3526 -13.3526 -10.2494 -10.2494  -7.7680  -7.7680
    -6.4577  -6.4577  -2.3221  -2.3221  -1.3852  -1.3852

          k = 0.2245 0.3582 0.0000 (  6336 PWs)   bands (ev):

   -18.3022 -18.3021 -13.3383 -13.3383 -10.1484 -10.1484  -7.7604  -7.7604
    -6.4235  -6.4235  -2.3212  -2.3212  -1.3754  -1.3754

          k = 0.2143 0.3582 0.0000 (  6336 PWs)   bands (ev):

   -18.3514 -18.3513 -13.3288 -13.3288 -10.0393 -10.0393  -7.7585  -7.7585
    -6.3869  -6.3869  -2.3166  -2.3166  -1.3705  -1.3705

          k = 0.2041 0.3582 0.0000 (  6332 PWs)   bands (ev):

   -18.3985 -18.3985 -13.3233 -13.3233  -9.9228  -9.9228  -7.7612  -7.7612
    -6.3491  -6.3491  -2.3084  -2.3084  -1.3704  -1.3704

          k = 0.1939 0.3582 0.0000 (  6332 PWs)   bands (ev):

   -18.4435 -18.4435 -13.3213 -13.3213  -9.7997  -9.7997  -7.7676  -7.7676
    -6.3113  -6.3113  -2.2969  -2.2969  -1.3751  -1.3751

          k = 0.1837 0.3582 0.0000 (  6324 PWs)   bands (ev):

   -18.4864 -18.4864 -13.3223 -13.3223  -9.6709  -9.6709  -7.7769  -7.7769
    -6.2747  -6.2747  -2.2828  -2.2828  -1.3846  -1.3846

          k = 0.1735 0.3582 0.0000 (  6314 PWs)   bands (ev):

   -18.5271 -18.5271 -13.3257 -13.3257  -9.5371  -9.5371  -7.7882  -7.7882
    -6.2402  -6.2402  -2.2669  -2.2669  -1.3992  -1.3992

          k = 0.1633 0.3582 0.0000 (  6308 PWs)   bands (ev):

   -18.5657 -18.5657 -13.3309 -13.3309  -9.3992  -9.3992  -7.8010  -7.8010
    -6.2087  -6.2087  -2.2506  -2.2506  -1.4196  -1.4196

          k = 0.1531 0.3582 0.0000 (  6304 PWs)   bands (ev):

   -18.6020 -18.6020 -13.3376 -13.3376  -9.2580  -9.2580  -7.8147  -7.8147
    -6.1809  -6.1809  -2.2361  -2.2361  -1.4463  -1.4463

          k = 0.1429 0.3582 0.0000 (  6300 PWs)   bands (ev):

   -18.6360 -18.6360 -13.3453 -13.3453  -9.1142  -9.1142  -7.8290  -7.8289
    -6.1574  -6.1574  -2.2265  -2.2265  -1.4796  -1.4796

          k = 0.1327 0.3582 0.0000 (  6306 PWs)   bands (ev):

   -18.6678 -18.6678 -13.3538 -13.3538  -8.9688  -8.9688  -7.8433  -7.8433
    -6.1388  -6.1388  -2.2264  -2.2264  -1.5183  -1.5183

          k = 0.1224 0.3582 0.0000 (  6318 PWs)   bands (ev):

   -18.6973 -18.6973 -13.3626 -13.3626  -8.8226  -8.8226  -7.8574  -7.8574
    -6.1255  -6.1255  -2.2413  -2.2413  -1.5576  -1.5576

          k = 0.1122 0.3582 0.0000 (  6308 PWs)   bands (ev):

   -18.7245 -18.7245 -13.3715 -13.3715  -8.6766  -8.6766  -7.8711  -7.8710
    -6.1178  -6.1178  -2.2766  -2.2766  -1.5897  -1.5897

          k = 0.1020 0.3582 0.0000 (  6308 PWs)   bands (ev):

   -18.7494 -18.7494 -13.3803 -13.3803  -8.5318  -8.5318  -7.8840  -7.8840
    -6.1160  -6.1160  -2.3340  -2.3340  -1.6080  -1.6079

          k = 0.0918 0.3582 0.0000 (  6304 PWs)   bands (ev):

   -18.7719 -18.7719 -13.3888 -13.3888  -8.3895  -8.3895  -7.8960  -7.8960
    -6.1201  -6.1201  -2.4097  -2.4097  -1.6105  -1.6105

          k = 0.0816 0.3582 0.0000 (  6304 PWs)   bands (ev):

   -18.7921 -18.7921 -13.3968 -13.3968  -8.2511  -8.2511  -7.9069  -7.9069
    -6.1302  -6.1302  -2.4967  -2.4967  -1.6000  -1.6000

          k = 0.0714 0.3582 0.0000 (  6320 PWs)   bands (ev):

   -18.8100 -18.8100 -13.4042 -13.4042  -8.1188  -8.1188  -7.9160  -7.9160
    -6.1459  -6.1459  -2.5875  -2.5875  -1.5807  -1.5807

          k = 0.0612 0.3582 0.0000 (  6328 PWs)   bands (ev):

   -18.8254 -18.8254 -13.4108 -13.4108  -7.9978  -7.9978  -7.9200  -7.9200
    -6.1665  -6.1665  -2.6758  -2.6758  -1.5562  -1.5562

          k = 0.0510 0.3582 0.0000 (  6332 PWs)   bands (ev):

   -18.8385 -18.8385 -13.4166 -13.4166  -7.9433  -7.9433  -7.8661  -7.8661
    -6.1909  -6.1909  -2.7571  -2.7571  -1.5295  -1.5295

          k = 0.0408 0.3582 0.0000 (  6324 PWs)   bands (ev):

   -18.8493 -18.8493 -13.4214 -13.4214  -7.9451  -7.9451  -7.7675  -7.7675
    -6.2173  -6.2173  -2.8276  -2.8276  -1.5025  -1.5025

          k = 0.0306 0.3582 0.0000 (  6312 PWs)   bands (ev):

   -18.8576 -18.8576 -13.4252 -13.4252  -7.9491  -7.9491  -7.6816  -7.6816
    -6.2432  -6.2432  -2.8850  -2.8850  -1.4767  -1.4767

          k = 0.0204 0.3582 0.0000 (  6320 PWs)   bands (ev):

   -18.8636 -18.8636 -13.4280 -13.4280  -7.9523  -7.9523  -7.6156  -7.6156
    -6.2653  -6.2653  -2.9272  -2.9272  -1.4528  -1.4528

          k = 0.0102 0.3582 0.0000 (  6324 PWs)   bands (ev):

   -18.8672 -18.8672 -13.4297 -13.4297  -7.9543  -7.9543  -7.5738  -7.5738
    -6.2805  -6.2805  -2.9530  -2.9530  -1.4314  -1.4311

          k = 0.0000 0.3582 0.0000 (  6336 PWs)   bands (ev):

   -18.8684 -18.8684 -13.4302 -13.4302  -7.9550  -7.9550  -7.5595  -7.5595
    -6.2859  -6.2859  -2.9618  -2.9618  -1.4168  -1.4047

          k = 0.0000 0.3509 0.0000 (  6336 PWs)   bands (ev):

   -18.9079 -18.8285 -13.4774 -13.3817  -8.0091  -7.9002  -7.5858  -7.5331
    -6.3645  -6.2093  -2.9702  -2.9552  -1.4679  -1.4399

          k = 0.0000 0.3436 0.0000 (  6328 PWs)   bands (ev):

   -18.9471 -18.7884 -13.5233 -13.3320  -8.0623  -7.8446  -7.6121  -7.5068
    -6.4450  -6.1351  -2.9805  -2.9507  -1.5201  -1.4735

          k = 0.0000 0.3362 0.0000 (  6324 PWs)   bands (ev):

   -18.9860 -18.7480 -13.5679 -13.2810  -8.1148  -7.7882  -7.6383  -7.4805
    -6.5271  -6.0635  -2.9924  -2.9482  -1.5735  -1.5056

          k = 0.0000 0.3289 0.0000 (  6334 PWs)   bands (ev):

   -19.0244 -18.7075 -13.6111 -13.2288  -8.1665  -7.7311  -7.6643  -7.4543
    -6.6107  -5.9949  -3.0056  -2.9478  -1.6280  -1.5362

          k = 0.0000 0.3216 0.0000 (  6328 PWs)   bands (ev):

   -19.0623 -18.6668 -13.6529 -13.1755  -8.2174  -7.6903  -7.6733  -7.4283
    -6.6954  -5.9296  -3.0199  -2.9493  -1.6837  -1.5653

          k = 0.0000 0.3143 0.0000 (  6322 PWs)   bands (ev):

   -19.0998 -18.6260 -13.6933 -13.1210  -8.2675  -7.7161  -7.6149  -7.4024
    -6.7810  -5.8680  -3.0349  -2.9527  -1.7405  -1.5928

          k = 0.0000 0.3070 0.0000 (  6322 PWs)   bands (ev):

   -19.1367 -18.5851 -13.7323 -13.0654  -8.3168  -7.7416  -7.5558  -7.3766
    -6.8675  -5.8105  -3.0501  -2.9579  -1.7983  -1.6188

          k = 0.0000 0.2997 0.0000 (  6324 PWs)   bands (ev):

   -19.1731 -18.5443 -13.7697 -13.0087  -8.3653  -7.7670  -7.4962  -7.3511
    -6.9545  -5.7573  -3.0651  -2.9648  -1.8572  -1.6433

          k = 0.0000 0.2924 0.0000 (  6328 PWs)   bands (ev):

   -19.2089 -18.5035 -13.8057 -12.9510  -8.4130  -7.7920  -7.4364  -7.3258
    -7.0417  -5.7091  -3.0794  -2.9732  -1.9169  -1.6662

          k = 0.0000 0.2851 0.0000 (  6329 PWs)   bands (ev):

   -19.2441 -18.4628 -13.8402 -12.8924  -8.4599  -7.8168  -7.3769  -7.3008
    -7.1281  -5.6661  -3.0925  -2.9830  -1.9774  -1.6875

          k = 0.0000 0.2778 0.0000 (  6345 PWs)   bands (ev):

   -19.2787 -18.4223 -13.8732 -12.8327  -8.5060  -7.8413  -7.3226  -7.2762
    -7.2092  -5.6289  -3.1037  -2.9941  -2.0386  -1.7073

          k = 0.0000 0.2705 0.0000 (  6343 PWs)   bands (ev):

   -19.3126 -18.3820 -13.9046 -12.7721  -8.5513  -7.8655  -7.3276  -7.2519
    -7.2303  -5.5977  -3.1127  -3.0062  -2.1004  -1.7255

          k = 0.0000 0.2631 0.0000 (  6341 PWs)   bands (ev):

   -19.3459 -18.3419 -13.9345 -12.7107  -8.5958  -7.8892  -7.4062  -7.2279
    -7.1773  -5.5729  -3.1188  -3.0193  -2.1628  -1.7422

          k = 0.0000 0.2558 0.0000 (  6345 PWs)   bands (ev):

   -19.3785 -18.3022 -13.9628 -12.6484  -8.6396  -7.9126  -7.4927  -7.2044
    -7.1157  -5.5547  -3.1217  -3.0333  -2.2255  -1.7574

          k = 0.0000 0.2485 0.0000 (  6345 PWs)   bands (ev):

   -19.4103 -18.2629 -13.9895 -12.5853  -8.6826  -7.9356  -7.5803  -7.1813
    -7.0522  -5.5434  -3.1211  -3.0479  -2.2886  -1.7711

          k = 0.0000 0.2412 0.0000 (  6363 PWs)   bands (ev):

   -19.4415 -18.2240 -14.0146 -12.5214  -8.7248  -7.9582  -7.6680  -7.1586
    -6.9877  -5.5389  -3.1168  -3.0631  -2.3520  -1.7833

          k = 0.0000 0.2339 0.0000 (  6369 PWs)   bands (ev):

   -19.4718 -18.1857 -14.0381 -12.4568  -8.7663  -7.9802  -7.7555  -7.1365
    -6.9224  -5.5413  -3.1085  -3.0788  -2.4155  -1.7940

          k = 0.0000 0.2266 0.0000 (  6365 PWs)   bands (ev):

   -19.5014 -18.1479 -14.0600 -12.3916  -8.8071  -8.0019  -7.8424  -7.1149
    -6.8566  -5.5503  -3.0964  -3.0948  -2.4790  -1.8033

          k = 0.0000 0.2193 0.0000 (  6363 PWs)   bands (ev):

   -19.5302 -18.1107 -14.0803 -12.3258  -8.8472  -8.0230  -7.9287  -7.0938
    -6.7902  -5.5658  -3.1111  -3.0805  -2.5427  -1.8112

          k = 0.0000 0.2120 0.0000 (  6365 PWs)   bands (ev):

   -19.5582 -18.0742 -14.0990 -12.2594  -8.8866  -8.0436  -8.0141  -7.0733
    -6.7233  -5.5873  -3.1275  -3.0611  -2.6062  -1.8177

          k = 0.0000 0.2047 0.0000 (  6377 PWs)   bands (ev):

   -19.5854 -18.0385 -14.1161 -12.1925  -8.9253  -8.0986  -8.0636  -7.0534
    -6.6561  -5.6145  -3.1440  -3.0384  -2.6697  -1.8230

          k = 0.0000 0.1974 0.0000 (  6373 PWs)   bands (ev):

   -19.6117 -18.0035 -14.1317 -12.1253  -8.9634  -8.1821  -8.0831  -7.0340
    -6.5884  -5.6468  -3.1605  -3.0128  -2.7330  -1.8270

          k = 0.0000 0.1901 0.0000 (  6373 PWs)   bands (ev):

   -19.6372 -17.9694 -14.1457 -12.0576  -9.0009  -8.2643  -8.1021  -7.0154
    -6.5205  -5.6836  -3.1770  -2.9847  -2.7962  -1.8297

          k = 0.0000 0.1827 0.0000 (  6367 PWs)   bands (ev):

   -19.6618 -17.9363 -14.1582 -11.9897  -9.0379  -8.3451  -8.1204  -6.9973
    -6.4522  -5.7245  -3.1934  -2.9545  -2.8590  -1.8313

          k = 0.0000 0.1754 0.0000 (  6365 PWs)   bands (ev):

   -19.6856 -17.9041 -14.1692 -11.9216  -9.0743  -8.4245  -8.1382  -6.9799
    -6.3837  -5.7688  -3.2097  -2.9227  -2.9215  -1.8319

          k = 0.0000 0.1681 0.0000 (  6361 PWs)   bands (ev):

   -19.7084 -17.8729 -14.1787 -11.8534  -9.1101  -8.5022  -8.1553  -6.9632
    -6.3150  -5.8161  -3.2259  -2.9836  -2.8896  -1.8314

          k = 0.0000 0.1608 0.0000 (  6361 PWs)   bands (ev):

   -19.7304 -17.8428 -14.1869 -11.7851  -9.1455  -8.5782  -8.1718  -6.9471
    -6.2462  -5.8657  -3.2423  -3.0449  -2.8557  -1.8299

          k = 0.0000 0.1535 0.0000 (  6367 PWs)   bands (ev):

   -19.7515 -17.8139 -14.1937 -11.7169  -9.1805  -8.6522  -8.1877  -6.9318
    -6.1773  -5.9171  -3.2590  -3.1052  -2.8214  -1.8276

          k = 0.0000 0.1462 0.0000 (  6361 PWs)   bands (ev):

   -19.7716 -17.7860 -14.1993 -11.6489  -9.2150  -8.7242  -8.2029  -6.9171
    -6.1085  -5.9699  -3.2772  -3.1633  -2.7870  -1.8245

          k = 0.0000 0.1389 0.0000 (  6357 PWs)   bands (ev):

   -19.7908 -17.7594 -14.2036 -11.5812  -9.2491  -8.7940  -8.2174  -6.9032
    -6.0396  -6.0234  -3.2996  -3.2165  -2.7528  -1.8207

          k = 0.0000 0.1316 0.0000 (  6359 PWs)   bands (ev):

   -19.8091 -17.7340 -14.2068 -11.5139  -9.2829  -8.8615  -8.2313  -6.8899
    -6.0774  -5.9709  -3.3325  -3.2583  -2.7191  -1.8163

          k = 0.0000 0.1243 0.0000 (  6365 PWs)   bands (ev):

   -19.8264 -17.7099 -14.2090 -11.4472  -9.3164  -8.9265  -8.2445  -6.8774
    -6.1312  -5.9025  -3.3794  -3.2852  -2.6862  -1.8114

          k = 0.0000 0.1170 0.0000 (  6363 PWs)   bands (ev):

   -19.8428 -17.6871 -14.2102 -11.3812  -9.3495  -8.9888  -8.2569  -6.8656
    -6.1846  -5.8344  -3.4340  -3.3034  -2.6543  -1.8060

          k = 0.0000 0.1096 0.0000 (  6373 PWs)   bands (ev):

   -19.8582 -17.6655 -14.2105 -11.3162  -9.3824  -9.0484  -8.2687  -6.8546
    -6.2371  -5.7667  -3.4913  -3.3179  -2.6237  -1.8003

          k = 0.0000 0.1023 0.0000 (  6373 PWs)   bands (ev):

   -19.8727 -17.6454 -14.2101 -11.2522  -9.4149  -9.1050  -8.2797  -6.8442
    -6.2882  -5.6996  -3.5495  -3.3304  -2.5945  -1.7944

          k = 0.0000 0.0950 0.0000 (  6377 PWs)   bands (ev):

   -19.8861 -17.6265 -14.2091 -11.1896  -9.4471  -9.1585  -8.2900  -6.8346
    -6.3377  -5.6333  -3.6078  -3.3415  -2.5668  -1.7884

          k = 0.0000 0.0877 0.0000 (  6373 PWs)   bands (ev):

   -19.8987 -17.6091 -14.2075 -11.1285  -9.4789  -9.2088  -8.2996  -6.8257
    -6.3851  -5.5679  -3.6656  -3.3516  -2.5408  -1.7823

          k = 0.0000 0.0804 0.0000 (  6385 PWs)   bands (ev):

   -19.9102 -17.5930 -14.2055 -11.0693  -9.5102  -9.2556  -8.3085  -6.8175
    -6.4302  -5.5037  -3.7228  -3.3608  -2.5167  -1.7763

          k = 0.0000 0.0731 0.0000 (  6391 PWs)   bands (ev):

   -19.9207 -17.5783 -14.2032 -11.0124  -9.5408  -9.2990  -8.3165  -6.8100
    -6.4726  -5.4410  -3.7790  -3.3691  -2.4944  -1.7704

          k = 0.0000 0.0658 0.0000 (  6381 PWs)   bands (ev):

   -19.9303 -17.5650 -14.2007 -10.9580  -9.5707  -9.3387  -8.3239  -6.8033
    -6.5119  -5.3800  -3.8339  -3.3766  -2.4740  -1.7648

          k = 0.0000 0.0585 0.0000 (  6377 PWs)   bands (ev):

   -19.9388 -17.5531 -14.1982 -10.9066  -9.5995  -9.3746  -8.3305  -6.7973
    -6.5480  -5.3213  -3.8870  -3.3833  -2.4557  -1.7595

          k = 0.0000 0.0512 0.0000 (  6365 PWs)   bands (ev):

   -19.9464 -17.5426 -14.1956 -10.8588  -9.6269  -9.4066  -8.3363  -6.7920
    -6.5805  -5.2655  -3.9379  -3.3893  -2.4395  -1.7546

          k = 0.0000 0.0439 0.0000 (  6375 PWs)   bands (ev):

   -19.9529 -17.5335 -14.1932 -10.8151  -9.6525  -9.4346  -8.3413  -6.7874
    -6.6092  -5.2133  -3.9857  -3.3944  -2.4253  -1.7502

          k = 0.0000 0.0365 0.0000 (  6375 PWs)   bands (ev):

   -19.9585 -17.5258 -14.1910 -10.7763  -9.6758  -9.4584  -8.3456  -6.7835
    -6.6339  -5.1655  -4.0297  -3.3988  -2.4133  -1.7464

          k = 0.0000 0.0292 0.0000 (  6371 PWs)   bands (ev):

   -19.9630 -17.5195 -14.1890 -10.7430  -9.6961  -9.4781  -8.3491  -6.7803
    -6.6543  -5.1234  -4.0686  -3.4023  -2.4035  -1.7432

          k = 0.0000 0.0219 0.0000 (  6359 PWs)   bands (ev):

   -19.9665 -17.5146 -14.1875 -10.7160  -9.7129  -9.4934  -8.3518  -6.7779
    -6.6704  -5.0883  -4.1012  -3.4051  -2.3958  -1.7406

          k = 0.0000 0.0146 0.0000 (  6367 PWs)   bands (ev):

   -19.9691 -17.5111 -14.1863 -10.6961  -9.7255  -9.5044  -8.3538  -6.7761
    -6.6820  -5.0618  -4.1260  -3.4070  -2.3904  -1.7388

          k = 0.0000 0.0073 0.0000 (  6365 PWs)   bands (ev):

   -19.9706 -17.5090 -14.1856 -10.6838  -9.7333  -9.5111  -8.3549  -6.7750
    -6.6890  -5.0451  -4.1416  -3.4082  -2.3871  -1.7377

          k = 0.0000 0.0000 0.0000 (  6369 PWs)   bands (ev):

   -19.9711 -17.5083 -14.1853 -10.6797  -9.7359  -9.5133  -8.3553  -6.7747
    -6.6913  -5.0394  -4.1469  -3.4086  -2.3860  -1.7373

     Writing output data file aiida.save
 
     init_run     :      1.99s CPU      2.12s WALL (       1 calls)
     electrons    :     49.66s CPU     53.47s WALL (       1 calls)

     Called by init_run:
     wfcinit      :      0.00s CPU      0.04s WALL (       1 calls)
     potinit      :      1.56s CPU      1.61s WALL (       1 calls)

     Called by electrons:
     c_bands      :     49.66s CPU     53.47s WALL (       1 calls)
     v_of_rho     :      0.02s CPU      0.01s WALL (       1 calls)
     v_h          :      0.00s CPU      0.00s WALL (       1 calls)
     v_xc         :      0.02s CPU      0.01s WALL (       1 calls)
     newd         :      0.05s CPU      0.06s WALL (       1 calls)

     Called by c_bands:
     init_us_2    :      0.02s CPU      0.04s WALL (     197 calls)
     ccgdiagg     :     46.16s CPU     47.03s WALL (     744 calls)
     wfcrot       :      3.31s CPU      3.38s WALL (     744 calls)

     Called by sum_band:

     Called by *cgdiagg:
     h_psi        :     34.50s CPU     35.05s WALL (  103646 calls)
     s_psi        :      6.63s CPU      6.56s WALL (  206548 calls)
     cdiaghg      :      0.28s CPU      0.28s WALL (     744 calls)
     cdiaghg:chol :      0.03s CPU      0.03s WALL (     744 calls)
     cdiaghg:inve :      0.01s CPU      0.01s WALL (     744 calls)
     cdiaghg:para :      0.02s CPU      0.02s WALL (    1488 calls)

     Called by h_psi:
     h_psi:vloc   :     26.91s CPU     27.54s WALL (  103646 calls)
     h_psi:vnl    :      7.41s CPU      7.28s WALL (  103646 calls)
     add_vuspsi   :      2.88s CPU      2.93s WALL (  103646 calls)

     General routines
     calbec       :      7.97s CPU      8.05s WALL (  206548 calls)
     fft          :      0.10s CPU      0.11s WALL (      13 calls)
     ffts         :      0.00s CPU      0.00s WALL (       1 calls)
     fftw         :     23.48s CPU     23.94s WALL (  227424 calls)
     interpolate  :      0.00s CPU      0.00s WALL (       1 calls)
     davcio       :      0.03s CPU      2.58s WALL (     197 calls)
 
     Parallel routines
     fft_scatter  :      7.38s CPU      7.53s WALL (  227438 calls)
 
     PWSCF        :  0m52.16s CPU     1m 4.91s WALL

 
   This run was terminated on:   4: 7:11   6Jan2017            

=------------------------------------------------------------------------------=
   JOB DONE.
=------------------------------------------------------------------------------=
