
     Program PWSCF v.7.1 starts on  2May2024 at 17: 1:16 

     This program is part of the open-source Quantum ESPRESSO suite
     for quantum simulation of materials; please cite
         "P. Giannozzi et al., J. Phys.:Condens. Matter 21 395502 (2009);
         "P. Giannozzi et al., J. Phys.:Condens. Matter 29 465901 (2017);
         "P. Giannozzi et al., J. Chem. Phys. 152 154105 (2020);
          URL http://www.quantum-espresso.org", 
     in publications or presentations arising from this work. More details at
     http://www.quantum-espresso.org/quote

     Parallel version (MPI & OpenMP), running on       6 processor cores
     Number of MPI processes:                 6
     Threads/MPI process:                     1

     MPI processes distributed on     1 nodes
     222109 MiB available memory on the printing compute node when the environment starts

     Waiting for input...
     Reading input from standard input

     Current dimensions of program PWSCF are:
     Max number of different atomic species (ntypx) = 10
     Max number of k-points (npk) =  40000
     Max angular momentum in pseudopotentials (lmaxx) =  4
     Message from routine setup:
     no reason to have ecutrho>4*ecutwfc

     R & G space division:  proc/nbgrp/npool/nimage =       6
     Subspace diagonalization in iterative solution of the eigenvalue problem:
     a serial algorithm will be used


     Parallelization info
     --------------------
     sticks:   dense  smooth     PW     G-vecs:    dense   smooth      PW
     Min         167      66     21                 3478      867     160
     Max         168      67     22                 3481      869     163
     Sum        1003     397    127                20875     5209     965

     Using Slab Decomposition



     bravais-lattice index     =            2
     lattice parameter (alat)  =       7.6307  a.u.
     unit-cell volume          =     111.0815 (a.u.)^3
     number of atoms/cell      =            1
     number of atomic types    =            1
     number of electrons       =         3.00
     number of Kohn-Sham states=            6
     kinetic-energy cutoff     =      50.0000  Ry
     charge density cutoff     =     500.0000  Ry
     scf convergence threshold =      1.0E-08
     mixing beta               =       0.7000
     number of iterations used =            8  plain     mixing
     Exchange-correlation= SLA  PZ   NOGX NOGC
                           (   1   1   0   0   0   0   0)

     celldm(1)=   7.630750  celldm(2)=   0.000000  celldm(3)=   0.000000
     celldm(4)=   0.000000  celldm(5)=   0.000000  celldm(6)=   0.000000

     crystal axes: (cart. coord. in units of alat)
               a(1) = (  -0.500000   0.000000   0.500000 )  
               a(2) = (   0.000000   0.500000   0.500000 )  
               a(3) = (  -0.500000   0.500000   0.000000 )  

     reciprocal axes: (cart. coord. in units 2 pi/alat)
               b(1) = ( -1.000000 -1.000000  1.000000 )  
               b(2) = (  1.000000  1.000000  1.000000 )  
               b(3) = ( -1.000000  1.000000 -1.000000 )  


     PseudoPot. # 1 for Al read from file:
     /home/bonacc_m/Documents/phonons/material-for-ljubljana-qe-summer-school/pseudo/Al.pz-vbc.UPF
     MD5 check sum: 69dcd8cd7cc1bedf536afd524f174f6a
     Pseudo is Norm-conserving, Zval =  3.0
     Generated by new atomic code, or converted to UPF format
     Using radial grid of  171 points,  2 beta functions with: 
                l(1) =   0
                l(2) =   1

     atomic species   valence    mass     pseudopotential
        Al             3.00    26.98154     Al( 1.00)

     48 Sym. Ops., with inversion, found



   Cartesian axes

     site n.     atom                  positions (alat units)
         1           Al  tau(   1) = (   0.0000000   0.0000000   0.0000000  )

     number of k points=    29  Gaussian smearing, width (Ry)=  0.0100
                       cart. coord. in units 2pi/alat
        k(    1) = (   0.0000000   0.0000000   0.0000000), wk =   0.0039062
        k(    2) = (  -0.1250000   0.1250000  -0.1250000), wk =   0.0312500
        k(    3) = (  -0.2500000   0.2500000  -0.2500000), wk =   0.0312500
        k(    4) = (  -0.3750000   0.3750000  -0.3750000), wk =   0.0312500
        k(    5) = (   0.5000000  -0.5000000   0.5000000), wk =   0.0156250
        k(    6) = (   0.0000000   0.2500000   0.0000000), wk =   0.0234375
        k(    7) = (  -0.1250000   0.3750000  -0.1250000), wk =   0.0937500
        k(    8) = (  -0.2500000   0.5000000  -0.2500000), wk =   0.0937500
        k(    9) = (   0.6250000  -0.3750000   0.6250000), wk =   0.0937500
        k(   10) = (   0.5000000  -0.2500000   0.5000000), wk =   0.0937500
        k(   11) = (   0.3750000  -0.1250000   0.3750000), wk =   0.0937500
        k(   12) = (   0.2500000   0.0000000   0.2500000), wk =   0.0468750
        k(   13) = (   0.0000000   0.5000000   0.0000000), wk =   0.0234375
        k(   14) = (  -0.1250000   0.6250000  -0.1250000), wk =   0.0937500
        k(   15) = (   0.7500000  -0.2500000   0.7500000), wk =   0.0937500
        k(   16) = (   0.6250000  -0.1250000   0.6250000), wk =   0.0937500
        k(   17) = (   0.5000000   0.0000000   0.5000000), wk =   0.0468750
        k(   18) = (   0.0000000   0.7500000   0.0000000), wk =   0.0234375
        k(   19) = (   0.8750000  -0.1250000   0.8750000), wk =   0.0937500
        k(   20) = (   0.7500000   0.0000000   0.7500000), wk =   0.0468750
        k(   21) = (   0.0000000  -1.0000000   0.0000000), wk =   0.0117188
        k(   22) = (  -0.2500000   0.5000000   0.0000000), wk =   0.0937500
        k(   23) = (   0.6250000  -0.3750000   0.8750000), wk =   0.1875000
        k(   24) = (   0.5000000  -0.2500000   0.7500000), wk =   0.0937500
        k(   25) = (   0.7500000  -0.2500000   1.0000000), wk =   0.0937500
        k(   26) = (   0.6250000  -0.1250000   0.8750000), wk =   0.1875000
        k(   27) = (   0.5000000   0.0000000   0.7500000), wk =   0.0937500
        k(   28) = (  -0.2500000  -1.0000000   0.0000000), wk =   0.0468750
        k(   29) = (  -0.5000000  -1.0000000   0.0000000), wk =   0.0234375

     Dense  grid:    20875 G-vectors     FFT dimensions: (  40,  40,  40)

     Smooth grid:     5209 G-vectors     FFT dimensions: (  25,  25,  25)

     Estimated max dynamical RAM per process >       2.71 MB

     Estimated total dynamical RAM >      16.24 MB

     Initial potential from superposition of free atoms

     starting charge       2.9979, renormalised to       3.0000

     negative rho (up, down):  2.075E-04 0.000E+00
     Starting wfcs are    4 randomized atomic wfcs +    2 random wfcs

     total cpu time spent up to now is        0.1 secs

     Self-consistent Calculation

     iteration #  1     ecut=    50.00 Ry     beta= 0.70
     Davidson diagonalization with overlap
     ethr =  1.00E-02,  avg # of iterations =  5.9

     Threshold (ethr) on eigenvalues was too large:
     Diagonalizing with lowered threshold

     Davidson diagonalization with overlap
     ethr =  1.86E-04,  avg # of iterations =  2.0

     negative rho (up, down):  2.993E-05 0.000E+00

     total cpu time spent up to now is        0.4 secs

     total energy              =      -4.18805429 Ry
     estimated scf accuracy    <       0.00558748 Ry

     iteration #  2     ecut=    50.00 Ry     beta= 0.70
     Davidson diagonalization with overlap
     ethr =  1.86E-04,  avg # of iterations =  1.0

     total cpu time spent up to now is        0.5 secs

     total energy              =      -4.18916394 Ry
     estimated scf accuracy    <       0.00046345 Ry

     iteration #  3     ecut=    50.00 Ry     beta= 0.70
     Davidson diagonalization with overlap
     c_bands:  1 eigenvalues not converged
     ethr =  1.54E-05,  avg # of iterations =  2.6

     total cpu time spent up to now is        0.6 secs

     total energy              =      -4.18926330 Ry
     estimated scf accuracy    <       0.00000029 Ry

     iteration #  4     ecut=    50.00 Ry     beta= 0.70
     Davidson diagonalization with overlap
     ethr =  9.62E-09,  avg # of iterations =  2.4

     total cpu time spent up to now is        0.7 secs

     End of self-consistent calculation

          k = 0.0000 0.0000 0.0000 (   645 PWs)   bands (ev):

    -3.3721  20.3369  20.3369  21.3502  21.3502  21.3502

          k =-0.1250 0.1250-0.1250 (   652 PWs)   bands (ev):

    -2.9426  15.9460  19.2500  19.2500  22.1929  23.0020

          k =-0.2500 0.2500-0.2500 (   655 PWs)   bands (ev):

    -1.6649  11.1380  18.4640  18.4640  21.9255  22.2974

          k =-0.3750 0.3750-0.3750 (   658 PWs)   bands (ev):

     0.4302   6.8875  18.3622  18.3622  20.3331  20.3332

          k = 0.5000-0.5000 0.5000 (   652 PWs)   bands (ev):

     3.2496   3.3473  18.8104  18.8104  19.1752  19.1752

          k = 0.0000 0.2500 0.0000 (   665 PWs)   bands (ev):

    -2.7998  17.4913  17.4914  17.8485  20.2936  22.3062

          k =-0.1250 0.3750-0.1250 (   662 PWs)   bands (ev):

    -1.8058  12.9735  16.4384  17.9965  19.1578  21.6290

          k =-0.2500 0.5000-0.2500 (   656 PWs)   bands (ev):

     0.0147   8.5685  16.0952  16.8422  17.8074  23.7999

          k = 0.6250-0.3750 0.6250 (   663 PWs)   bands (ev):

     2.6194   4.7729  15.2295  16.4597  18.2486  22.2781

          k = 0.5000-0.2500 0.5000 (   663 PWs)   bands (ev):

     1.6677   5.9603  14.3598  17.5310  19.4199  21.4463

          k = 0.3750-0.1250 0.3750 (   650 PWs)   bands (ev):

    -0.6818   9.9520  14.2609  19.2773  21.2877  21.3441

          k = 0.2500 0.0000 0.2500 (   658 PWs)   bands (ev):

    -2.2307  14.1065  15.3164  21.3295  21.4488  23.0111

          k = 0.0000 0.5000 0.0000 (   649 PWs)   bands (ev):

    -1.1014  15.1374  15.1374  15.1587  15.8957  18.5274

          k =-0.1250 0.6250-0.1250 (   664 PWs)   bands (ev):

     0.4304  10.9260  13.2542  14.5528  16.0287  19.9349

          k = 0.7500-0.2500 0.7500 (   672 PWs)   bands (ev):

     2.7503   6.9998  11.3524  14.6764  16.3711  23.5664

          k = 0.6250-0.1250 0.6250 (   674 PWs)   bands (ev):

     3.6948   5.7936  10.2430  15.5085  17.3537  25.2421

          k = 0.5000 0.0000 0.5000 (   670 PWs)   bands (ev):

     1.1195   8.9750  10.4586  17.0526  19.0488  24.7561

          k = 0.0000 0.7500 0.0000 (   664 PWs)   bands (ev):

     1.6644  10.2970  13.4905  13.7299  13.7299  17.1540

          k = 0.8750-0.1250 0.8750 (   666 PWs)   bands (ev):

     3.6680   8.1063   9.9270  13.6149  14.9723  19.0256

          k = 0.7500 0.0000 0.7500 (   670 PWs)   bands (ev):

     5.9157   6.4143   7.3107  14.2056  15.8515  23.1681

          k = 0.0000-1.0000 0.0000 (   652 PWs)   bands (ev):

     4.9028   6.1143  12.9302  13.2628  13.2628  16.6599

          k =-0.2500 0.5000 0.0000 (   652 PWs)   bands (ev):

    -0.5419  11.5416  12.9307  16.3893  19.7689  21.3489

          k = 0.6250-0.3750 0.8750 (   663 PWs)   bands (ev):

     1.5304   7.8808  12.2639  14.2857  20.3363  22.4054

          k = 0.5000-0.2500 0.7500 (   666 PWs)   bands (ev):

     4.2752   4.4545  12.6619  13.1022  20.7699  21.3919

          k = 0.7500-0.2500 1.0000 (   666 PWs)   bands (ev):

     2.2087  10.0006  10.7090  11.5825  18.2698  20.1579

          k = 0.6250-0.1250 0.8750 (   669 PWs)   bands (ev):

     4.7265   6.8317   9.1802  11.3178  19.4229  23.4312

          k = 0.5000 0.0000 0.7500 (   665 PWs)   bands (ev):

     3.8250   7.4418   8.8701  12.4065  20.6057  23.9315

          k =-0.2500-1.0000 0.0000 (   670 PWs)   bands (ev):

     5.4087   6.6627   9.4870  10.9812  17.7617  19.7222

          k =-0.5000-1.0000 0.0000 (   684 PWs)   bands (ev):

     6.9321   6.9321   7.9209   8.7964  23.4465  23.4466

     the Fermi energy is     7.7759 ev

!    total energy              =      -4.18927278 Ry
     estimated scf accuracy    <          1.8E-09 Ry
     smearing contrib. (-TS)   =      -0.00031421 Ry
     internal energy E=F+TS    =      -4.18895858 Ry

     The total energy is F=E-TS. E is the sum of the following terms:
     one-electron contribution =       2.81862286 Ry
     hartree contribution      =       0.00937476 Ry
     xc contribution           =      -1.60939355 Ry
     ewald contribution        =      -5.40756265 Ry

     convergence has been achieved in   4 iterations

     Writing all to output data dir ./tmp/al.save/

     init_run     :      0.05s CPU      0.06s WALL (       1 calls)
     electrons    :      0.63s CPU      0.65s WALL (       1 calls)

     Called by init_run:
     wfcinit      :      0.03s CPU      0.04s WALL (       1 calls)
     potinit      :      0.00s CPU      0.00s WALL (       1 calls)
     hinit0       :      0.00s CPU      0.00s WALL (       1 calls)

     Called by electrons:
     c_bands      :      0.55s CPU      0.56s WALL (       5 calls)
     sum_band     :      0.07s CPU      0.08s WALL (       5 calls)
     v_of_rho     :      0.00s CPU      0.01s WALL (       5 calls)
     mix_rho      :      0.00s CPU      0.00s WALL (       5 calls)

     Called by c_bands:
     init_us_2    :      0.01s CPU      0.01s WALL (     319 calls)
     init_us_2:cp :      0.01s CPU      0.01s WALL (     319 calls)
     cegterg      :      0.54s CPU      0.55s WALL (     145 calls)

     Called by *egterg:
     cdiaghg      :      0.03s CPU      0.03s WALL (     518 calls)
     h_psi        :      0.49s CPU      0.50s WALL (     576 calls)
     g_psi        :      0.00s CPU      0.00s WALL (     402 calls)

     Called by h_psi:
     h_psi:calbec :      0.01s CPU      0.01s WALL (     576 calls)
     vloc_psi     :      0.47s CPU      0.49s WALL (     576 calls)
     add_vuspsi   :      0.00s CPU      0.00s WALL (     576 calls)

     General routines
     calbec       :      0.01s CPU      0.01s WALL (     576 calls)
     fft          :      0.01s CPU      0.01s WALL (      23 calls)
     ffts         :      0.00s CPU      0.00s WALL (      10 calls)
     fftw         :      0.50s CPU      0.52s WALL (    5910 calls)
     interpolate  :      0.00s CPU      0.00s WALL (       5 calls)

     Parallel routines

     PWSCF        :      0.72s CPU      0.76s WALL


   This run was terminated on:  17: 1:16   2May2024            

=------------------------------------------------------------------------------=
   JOB DONE.
=------------------------------------------------------------------------------=
