
     Program PHONON v.7.1 starts on  3Jun2024 at 15:31:10 

     This program is part of the open-source Quantum ESPRESSO suite
     for quantum simulation of materials; please cite
         "P. Giannozzi et al., J. Phys.:Condens. Matter 21 395502 (2009);
         "P. Giannozzi et al., J. Phys.:Condens. Matter 29 465901 (2017);
         "P. Giannozzi et al., J. Chem. Phys. 152 154105 (2020);
          URL http://www.quantum-espresso.org", 
     in publications or presentations arising from this work. More details at
     http://www.quantum-espresso.org/quote

     Parallel version (MPI & OpenMP), running on       6 processor cores
     Number of MPI processes:                 6
     Threads/MPI process:                     1

     MPI processes distributed on     1 nodes
     R & G space division:  proc/nbgrp/npool/nimage =       6
     243584 MiB available memory on the printing compute node when the environment starts

     Reading input from ph.in

     Reading xml data from directory:

     ./tmp/al.save/

     IMPORTANT: XC functional enforced from input :
     Exchange-correlation= PBE
                           (   1   4   3   4   0   0   0)
     Any further DFT definition will be discarded
     Please, verify this is what you really want


     Parallelization info
     --------------------
     sticks:   dense  smooth     PW     G-vecs:    dense   smooth      PW
     Min         159      63     20                 3262      817     156
     Max         160      64     21                 3266      819     160
     Sum         955     379    121                19579     4909     941

     Using Slab Decomposition

     Reading collected, re-writing distributed wavefunctions


     Dynamical matrices for ( 4, 4, 4)  uniform grid of q-points
     (   8 q-points):
       N         xq(1)         xq(2)         xq(3) 
       1   0.000000000   0.000000000   0.000000000
       2  -0.250000000   0.250000000  -0.250000000
       3   0.500000000  -0.500000000   0.500000000
       4   0.000000000   0.500000000   0.000000000
       5   0.750000000  -0.250000000   0.750000000
       6   0.500000000   0.000000000   0.500000000
       7   0.000000000  -1.000000000   0.000000000
       8  -0.500000000  -1.000000000   0.000000000

     Calculation of q =    0.0000000   0.0000000   0.0000000

     al                                                                         

     bravais-lattice index     =            2
     lattice parameter (alat)  =       7.4305  a.u.
     unit-cell volume          =     102.5647 (a.u.)^3
     number of atoms/cell      =            1
     number of atomic types    =            1
     kinetic-energy cut-off    =      50.0000  Ry
     charge density cut-off    =     500.0000  Ry
     convergence threshold     =      1.0E-16
     beta                      =       0.7000
     number of iterations used =            4
     Exchange-correlation= PBE
                           (   1   4   3   4   0   0   0)


     celldm(1)=    7.43052  celldm(2)=    0.00000  celldm(3)=    0.00000
     celldm(4)=    0.00000  celldm(5)=    0.00000  celldm(6)=    0.00000

     crystal axes: (cart. coord. in units of alat)
               a(1) = ( -0.5000  0.0000  0.5000 )  
               a(2) = (  0.0000  0.5000  0.5000 )  
               a(3) = ( -0.5000  0.5000  0.0000 )  

     reciprocal axes: (cart. coord. in units 2 pi/alat)
               b(1) = ( -1.0000 -1.0000  1.0000 )  
               b(2) = (  1.0000  1.0000  1.0000 )  
               b(3) = ( -1.0000  1.0000 -1.0000 )  


     Atoms inside the unit cell: 

     Cartesian axes

     site n.  atom      mass           positions (alat units)
        1     Al  26.9815   tau(    1) = (    0.00000    0.00000    0.00000  )

     Computing dynamical matrix for 
                    q = (   0.0000000   0.0000000   0.0000000 )

     49 Sym.Ops. (with q -> -q+G )


     G cutoff =  699.2765  (   3263 G-vectors)     FFT grid: ( 40, 40, 40)
     G cutoff =  279.7106  (    819 G-vectors)  smooth grid: ( 24, 24, 24)

     number of k points=    72  Gaussian smearing, width (Ry)=  0.0100

     PseudoPot. # 1 for Al read from file:
     /home/bonacc_m/Downloads/sg15_oncv_upf_2020-02-06/Al_ONCV_PBE-1.2.upf
     MD5 check sum: 2d9e7bc02555220d62fad08c3c4858e7
     Pseudo is Norm-conserving, Zval = 11.0
     Generated using ONCVPSP code by D. R. Hamann
     Using radial grid of  602 points,  4 beta functions with: 
                l(1) =   0
                l(2) =   0
                l(3) =   1
                l(4) =   1

     Mode symmetry, O_h (m-3m)  point group:


     Atomic displacements:
     There are    1 irreducible representations

     Representation     1      3 modes -  To be done



     Alpha used in Ewald sum =   2.8000
     PHONON       :      0.20s CPU      0.21s WALL



     Representation #   1 modes #   1   2   3

     Self-consistent Calculation

     Pert. #  1: Fermi energy shift (Ry) =     4.4116E-24     3.1347E-38
     Pert. #  2: Fermi energy shift (Ry) =    -1.1029E-24     2.0375E-37
     Pert. #  3: Fermi energy shift (Ry) =    -2.7573E-24     7.8366E-38

      iter #   1 total cpu time :     1.6 secs   av.it.:   7.0
      thresh= 1.000E-02 alpha_mix =  0.700 |ddv_scf|^2 =  3.193E-06

     Pert. #  1: Fermi energy shift (Ry) =     2.7573E-25    -7.3468E-40
     Pert. #  2: Fermi energy shift (Ry) =    -7.6687E-25     1.4081E-39
     Pert. #  3: Fermi energy shift (Ry) =     1.5510E-25    -5.5101E-40

      iter #   2 total cpu time :     3.1 secs   av.it.:   9.8
      thresh= 1.787E-04 alpha_mix =  0.700 |ddv_scf|^2 =  1.946E-08

     Pert. #  1: Fermi energy shift (Ry) =     1.7664E-25    -1.2245E-40
     Pert. #  2: Fermi energy shift (Ry) =     3.4197E-26    -7.9591E-40
     Pert. #  3: Fermi energy shift (Ry) =     3.4627E-25    -3.0612E-40

      iter #   3 total cpu time :     4.4 secs   av.it.:   8.9
      thresh= 1.395E-05 alpha_mix =  0.700 |ddv_scf|^2 =  1.881E-09

     Pert. #  1: Fermi energy shift (Ry) =    -2.7573E-25    -3.0612E-41
     Pert. #  2: Fermi energy shift (Ry) =    -5.2237E-26    -1.9898E-40
     Pert. #  3: Fermi energy shift (Ry) =    -7.0009E-26    -7.6530E-41

      iter #   4 total cpu time :     5.7 secs   av.it.:   8.7
      thresh= 4.338E-06 alpha_mix =  0.700 |ddv_scf|^2 =  1.988E-12

     Pert. #  1: Fermi energy shift (Ry) =     2.1541E-26    -3.8265E-42
     Pert. #  2: Fermi energy shift (Ry) =    -8.5088E-26     5.9789E-42
     Pert. #  3: Fermi energy shift (Ry) =     4.3621E-26     7.1746E-42

      iter #   5 total cpu time :     7.1 secs   av.it.:   9.4
      thresh= 1.410E-07 alpha_mix =  0.700 |ddv_scf|^2 =  4.737E-15

     Pert. #  1: Fermi energy shift (Ry) =    -6.2469E-26    -1.9132E-42
     Pert. #  2: Fermi energy shift (Ry) =     1.3167E-25    -2.8699E-42
     Pert. #  3: Fermi energy shift (Ry) =    -1.0232E-26    -4.5439E-42

      iter #   6 total cpu time :     8.3 secs   av.it.:   7.9
      thresh= 6.883E-09 alpha_mix =  0.700 |ddv_scf|^2 =  1.718E-16

     Pert. #  1: Fermi energy shift (Ry) =    -2.1541E-26    -1.9132E-42
     Pert. #  2: Fermi energy shift (Ry) =     3.5004E-27    -2.8699E-42
     Pert. #  3: Fermi energy shift (Ry) =     9.2088E-26    -4.5439E-42

      iter #   7 total cpu time :     9.8 secs   av.it.:   8.9
      thresh= 1.311E-09 alpha_mix =  0.700 |ddv_scf|^2 =  1.921E-20

     End of self-consistent calculation

     Convergence has been achieved 

     Number of q in the star =    1
     List of q in the star:
          1   0.000000000   0.000000000   0.000000000

     Diagonalizing the dynamical matrix

     q = (    0.000000000   0.000000000   0.000000000 ) 

 **************************************************************************
     freq (    1) =       0.140205 [THz] =       4.676729 [cm-1]
     freq (    2) =       0.140205 [THz] =       4.676729 [cm-1]
     freq (    3) =       0.140205 [THz] =       4.676729 [cm-1]
 **************************************************************************

     Mode symmetry, O_h (m-3m)  point group:

     freq (   1-   3) =          4.7  [cm-1]   --> T_1u G_15  G_4- I  

     Calculation of q =   -0.2500000   0.2500000  -0.2500000
     Subspace diagonalization in iterative solution of the eigenvalue problem:
     a serial algorithm will be used


     Parallelization info
     --------------------
     sticks:   dense  smooth     PW     G-vecs:    dense   smooth      PW
     Min         159      63     23                 3262      817     177
     Max         160      64     24                 3266      819     179
     Sum         955     379    139                19579     4909    1067

     Using Slab Decomposition


     Title: 
     al                                                                         


     bravais-lattice index     =            2
     lattice parameter (alat)  =       7.4305  a.u.
     unit-cell volume          =     102.5647 (a.u.)^3
     number of atoms/cell      =            1
     number of atomic types    =            1
     number of electrons       =        11.00
     number of Kohn-Sham states=           10
     kinetic-energy cutoff     =      50.0000  Ry
     charge density cutoff     =     500.0000  Ry
     Exchange-correlation= PBE
                           (   1   4   3   4   0   0   0)

     celldm(1)=   7.430522  celldm(2)=   0.000000  celldm(3)=   0.000000
     celldm(4)=   0.000000  celldm(5)=   0.000000  celldm(6)=   0.000000

     crystal axes: (cart. coord. in units of alat)
               a(1) = (  -0.500000   0.000000   0.500000 )  
               a(2) = (   0.000000   0.500000   0.500000 )  
               a(3) = (  -0.500000   0.500000   0.000000 )  

     reciprocal axes: (cart. coord. in units 2 pi/alat)
               b(1) = ( -1.000000 -1.000000  1.000000 )  
               b(2) = (  1.000000  1.000000  1.000000 )  
               b(3) = ( -1.000000  1.000000 -1.000000 )  


     PseudoPot. # 1 for Al read from file:
     /home/bonacc_m/Downloads/sg15_oncv_upf_2020-02-06/Al_ONCV_PBE-1.2.upf
     MD5 check sum: 2d9e7bc02555220d62fad08c3c4858e7
     Pseudo is Norm-conserving, Zval = 11.0
     Generated using ONCVPSP code by D. R. Hamann
     Using radial grid of  602 points,  4 beta functions with: 
                l(1) =   0
                l(2) =   0
                l(3) =   1
                l(4) =   1

     atomic species   valence    mass     pseudopotential
        Al            11.00    26.98154     Al( 1.00)

     48 Sym. Ops., with inversion, found



   Cartesian axes

     site n.     atom                  positions (alat units)
         1           Al  tau(   1) = (   0.0000000   0.0000000   0.0000000  )

     number of k points=   728  Gaussian smearing, width (Ry)=  0.0100

     Number of k-points >= 100: set verbosity='high' to print them.

     Dense  grid:    19579 G-vectors     FFT dimensions: (  40,  40,  40)

     Smooth grid:     4909 G-vectors     FFT dimensions: (  24,  24,  24)

     Estimated max dynamical RAM per process >       1.98 MB

     Estimated total dynamical RAM >      11.86 MB

     The potential is recalculated from file :
     ./tmp/_ph0/al.save/charge-density

     Starting wfcs are    0 atomic +   10 random wfcs

     Band Structure Calculation
     Davidson diagonalization with overlap

     ethr =  9.09E-11,  avg # of iterations = 16.0

     total cpu time spent up to now is       13.0 secs

     End of band structure calculation

     Number of k-points >= 100: set verbosity='high' to print the bands.

     the Fermi energy is    11.9829 ev

     Writing config to output data dir ./tmp/_ph0/al.save/

     al                                                                         

     bravais-lattice index     =            2
     lattice parameter (alat)  =       7.4305  a.u.
     unit-cell volume          =     102.5647 (a.u.)^3
     number of atoms/cell      =            1
     number of atomic types    =            1
     kinetic-energy cut-off    =      50.0000  Ry
     charge density cut-off    =     500.0000  Ry
     convergence threshold     =      1.0E-16
     beta                      =       0.7000
     number of iterations used =            4
     Exchange-correlation= PBE
                           (   1   4   3   4   0   0   0)


     celldm(1)=    7.43052  celldm(2)=    0.00000  celldm(3)=    0.00000
     celldm(4)=    0.00000  celldm(5)=    0.00000  celldm(6)=    0.00000

     crystal axes: (cart. coord. in units of alat)
               a(1) = ( -0.5000  0.0000  0.5000 )  
               a(2) = (  0.0000  0.5000  0.5000 )  
               a(3) = ( -0.5000  0.5000  0.0000 )  

     reciprocal axes: (cart. coord. in units 2 pi/alat)
               b(1) = ( -1.0000 -1.0000  1.0000 )  
               b(2) = (  1.0000  1.0000  1.0000 )  
               b(3) = ( -1.0000  1.0000 -1.0000 )  


     Atoms inside the unit cell: 

     Cartesian axes

     site n.  atom      mass           positions (alat units)
        1     Al  26.9815   tau(    1) = (    0.00000    0.00000    0.00000  )

     Computing dynamical matrix for 
                    q = (  -0.2500000   0.2500000  -0.2500000 )

      6 Sym.Ops. (no q -> -q+G )


     G cutoff =  699.2765  (   3263 G-vectors)     FFT grid: ( 40, 40, 40)
     G cutoff =  279.7106  (    818 G-vectors)  smooth grid: ( 24, 24, 24)

     number of k points=   728  Gaussian smearing, width (Ry)=  0.0100

     PseudoPot. # 1 for Al read from file:
     /home/bonacc_m/Downloads/sg15_oncv_upf_2020-02-06/Al_ONCV_PBE-1.2.upf
     MD5 check sum: 2d9e7bc02555220d62fad08c3c4858e7
     Pseudo is Norm-conserving, Zval = 11.0
     Generated using ONCVPSP code by D. R. Hamann
     Using radial grid of  602 points,  4 beta functions with: 
                l(1) =   0
                l(2) =   0
                l(3) =   1
                l(4) =   1

     Mode symmetry, C_3v (3m)   point group:


     Atomic displacements:
     There are    2 irreducible representations

     Representation     1      1 modes -  To be done

     Representation     2      2 modes -  To be done



     Alpha used in Ewald sum =   2.8000
     PHONON       :     22.06s CPU     23.06s WALL



     Representation #   1 mode #   1

     Self-consistent Calculation

      iter #   1 total cpu time :    25.2 secs   av.it.:   7.6
      thresh= 1.000E-02 alpha_mix =  0.700 |ddv_scf|^2 =  1.686E-02

      iter #   2 total cpu time :    27.0 secs   av.it.:   7.8
      thresh= 1.000E-02 alpha_mix =  0.700 |ddv_scf|^2 =  5.894E-01

      iter #   3 total cpu time :    28.9 secs   av.it.:   7.6
      thresh= 1.000E-02 alpha_mix =  0.700 |ddv_scf|^2 =  2.314E-06

      iter #   4 total cpu time :    30.9 secs   av.it.:   8.4
      thresh= 1.521E-04 alpha_mix =  0.700 |ddv_scf|^2 =  2.697E-08

      iter #   5 total cpu time :    33.2 secs   av.it.:   8.8
      thresh= 1.642E-05 alpha_mix =  0.700 |ddv_scf|^2 =  1.742E-09

      iter #   6 total cpu time :    35.5 secs   av.it.:   8.1
      thresh= 4.174E-06 alpha_mix =  0.700 |ddv_scf|^2 =  5.564E-10

      iter #   7 total cpu time :    37.8 secs   av.it.:   6.7
      thresh= 2.359E-06 alpha_mix =  0.700 |ddv_scf|^2 =  1.023E-09

      iter #   8 total cpu time :    39.9 secs   av.it.:   6.6
      thresh= 3.198E-06 alpha_mix =  0.700 |ddv_scf|^2 =  3.401E-11

      iter #   9 total cpu time :    41.7 secs   av.it.:   6.1
      thresh= 5.832E-07 alpha_mix =  0.700 |ddv_scf|^2 =  2.297E-12

      iter #  10 total cpu time :    43.9 secs   av.it.:   7.1
      thresh= 1.516E-07 alpha_mix =  0.700 |ddv_scf|^2 =  2.770E-15

      iter #  11 total cpu time :    46.6 secs   av.it.:   8.3
      thresh= 5.264E-09 alpha_mix =  0.700 |ddv_scf|^2 =  1.984E-17

     End of self-consistent calculation

     Convergence has been achieved 


     Representation #   2 modes #   2   3

     Self-consistent Calculation

      iter #   1 total cpu time :    50.7 secs   av.it.:   7.0
      thresh= 1.000E-02 alpha_mix =  0.700 |ddv_scf|^2 =  7.721E-06

      iter #   2 total cpu time :    55.1 secs   av.it.:   9.6
      thresh= 2.779E-04 alpha_mix =  0.700 |ddv_scf|^2 =  5.883E-08

      iter #   3 total cpu time :    59.2 secs   av.it.:   8.8
      thresh= 2.426E-05 alpha_mix =  0.700 |ddv_scf|^2 =  4.378E-09

      iter #   4 total cpu time :    63.1 secs   av.it.:   8.5
      thresh= 6.616E-06 alpha_mix =  0.700 |ddv_scf|^2 =  1.573E-11

      iter #   5 total cpu time :    67.3 secs   av.it.:   9.1
      thresh= 3.967E-07 alpha_mix =  0.700 |ddv_scf|^2 =  6.961E-14

      iter #   6 total cpu time :    71.4 secs   av.it.:   9.1
      thresh= 2.638E-08 alpha_mix =  0.700 |ddv_scf|^2 =  4.306E-16

      iter #   7 total cpu time :    75.2 secs   av.it.:   8.2
      thresh= 2.075E-09 alpha_mix =  0.700 |ddv_scf|^2 =  1.722E-17

     End of self-consistent calculation

     Convergence has been achieved 

     Number of q in the star =    8
     List of q in the star:
          1  -0.250000000   0.250000000  -0.250000000
          2   0.250000000  -0.250000000  -0.250000000
          3   0.250000000  -0.250000000   0.250000000
          4   0.250000000   0.250000000   0.250000000
          5  -0.250000000  -0.250000000  -0.250000000
          6  -0.250000000  -0.250000000   0.250000000
          7  -0.250000000   0.250000000   0.250000000
          8   0.250000000   0.250000000  -0.250000000

     Diagonalizing the dynamical matrix

     q = (   -0.250000000   0.250000000  -0.250000000 ) 

 **************************************************************************
     freq (    1) =       3.886141 [THz] =     129.627726 [cm-1]
     freq (    2) =       3.886141 [THz] =     129.627726 [cm-1]
     freq (    3) =       8.030653 [THz] =     267.873749 [cm-1]
 **************************************************************************

     Mode symmetry, C_3v (3m)   point group:

     freq (   1-   2) =        129.6  [cm-1]   --> E    L_3           
     freq (   3-   3) =        267.9  [cm-1]   --> A_1  L_1           

     Calculation of q =    0.5000000  -0.5000000   0.5000000

     Parallelization info
     --------------------
     sticks:   dense  smooth     PW     G-vecs:    dense   smooth      PW
     Min         159      63     25                 3262      817     206
     Max         160      64     26                 3266      819     209
     Sum         955     379    151                19579     4909    1243

     Using Slab Decomposition


     Title: 
     al                                                                         


     bravais-lattice index     =            2
     lattice parameter (alat)  =       7.4305  a.u.
     unit-cell volume          =     102.5647 (a.u.)^3
     number of atoms/cell      =            1
     number of atomic types    =            1
     number of electrons       =        11.00
     number of Kohn-Sham states=           10
     kinetic-energy cutoff     =      50.0000  Ry
     charge density cutoff     =     500.0000  Ry
     Exchange-correlation= PBE
                           (   1   4   3   4   0   0   0)

     celldm(1)=   7.430522  celldm(2)=   0.000000  celldm(3)=   0.000000
     celldm(4)=   0.000000  celldm(5)=   0.000000  celldm(6)=   0.000000

     crystal axes: (cart. coord. in units of alat)
               a(1) = (  -0.500000   0.000000   0.500000 )  
               a(2) = (   0.000000   0.500000   0.500000 )  
               a(3) = (  -0.500000   0.500000   0.000000 )  

     reciprocal axes: (cart. coord. in units 2 pi/alat)
               b(1) = ( -1.000000 -1.000000  1.000000 )  
               b(2) = (  1.000000  1.000000  1.000000 )  
               b(3) = ( -1.000000  1.000000 -1.000000 )  


     PseudoPot. # 1 for Al read from file:
     /home/bonacc_m/Downloads/sg15_oncv_upf_2020-02-06/Al_ONCV_PBE-1.2.upf
     MD5 check sum: 2d9e7bc02555220d62fad08c3c4858e7
     Pseudo is Norm-conserving, Zval = 11.0
     Generated using ONCVPSP code by D. R. Hamann
     Using radial grid of  602 points,  4 beta functions with: 
                l(1) =   0
                l(2) =   0
                l(3) =   1
                l(4) =   1

     atomic species   valence    mass     pseudopotential
        Al            11.00    26.98154     Al( 1.00)

     48 Sym. Ops., with inversion, found



   Cartesian axes

     site n.     atom                  positions (alat units)
         1           Al  tau(   1) = (   0.0000000   0.0000000   0.0000000  )

     number of k points=   378  Gaussian smearing, width (Ry)=  0.0100

     Number of k-points >= 100: set verbosity='high' to print them.

     Dense  grid:    19579 G-vectors     FFT dimensions: (  40,  40,  40)

     Smooth grid:     4909 G-vectors     FFT dimensions: (  24,  24,  24)

     Estimated max dynamical RAM per process >       1.99 MB

     Estimated total dynamical RAM >      11.92 MB

     The potential is recalculated from file :
     ./tmp/_ph0/al.save/charge-density

     Starting wfcs are    0 atomic +   10 random wfcs

     Band Structure Calculation
     Davidson diagonalization with overlap

     ethr =  9.09E-11,  avg # of iterations = 15.9

     total cpu time spent up to now is       19.8 secs

     End of band structure calculation

     Number of k-points >= 100: set verbosity='high' to print the bands.

     the Fermi energy is    11.9829 ev

     Writing config to output data dir ./tmp/_ph0/al.save/

     al                                                                         

     bravais-lattice index     =            2
     lattice parameter (alat)  =       7.4305  a.u.
     unit-cell volume          =     102.5647 (a.u.)^3
     number of atoms/cell      =            1
     number of atomic types    =            1
     kinetic-energy cut-off    =      50.0000  Ry
     charge density cut-off    =     500.0000  Ry
     convergence threshold     =      1.0E-16
     beta                      =       0.7000
     number of iterations used =            4
     Exchange-correlation= PBE
                           (   1   4   3   4   0   0   0)


     celldm(1)=    7.43052  celldm(2)=    0.00000  celldm(3)=    0.00000
     celldm(4)=    0.00000  celldm(5)=    0.00000  celldm(6)=    0.00000

     crystal axes: (cart. coord. in units of alat)
               a(1) = ( -0.5000  0.0000  0.5000 )  
               a(2) = (  0.0000  0.5000  0.5000 )  
               a(3) = ( -0.5000  0.5000  0.0000 )  

     reciprocal axes: (cart. coord. in units 2 pi/alat)
               b(1) = ( -1.0000 -1.0000  1.0000 )  
               b(2) = (  1.0000  1.0000  1.0000 )  
               b(3) = ( -1.0000  1.0000 -1.0000 )  


     Atoms inside the unit cell: 

     Cartesian axes

     site n.  atom      mass           positions (alat units)
        1     Al  26.9815   tau(    1) = (    0.00000    0.00000    0.00000  )

     Computing dynamical matrix for 
                    q = (   0.5000000  -0.5000000   0.5000000 )

     13 Sym.Ops. (with q -> -q+G )


     G cutoff =  699.2765  (   3263 G-vectors)     FFT grid: ( 40, 40, 40)
     G cutoff =  279.7106  (    818 G-vectors)  smooth grid: ( 24, 24, 24)

     number of k points=   378  Gaussian smearing, width (Ry)=  0.0100

     PseudoPot. # 1 for Al read from file:
     /home/bonacc_m/Downloads/sg15_oncv_upf_2020-02-06/Al_ONCV_PBE-1.2.upf
     MD5 check sum: 2d9e7bc02555220d62fad08c3c4858e7
     Pseudo is Norm-conserving, Zval = 11.0
     Generated using ONCVPSP code by D. R. Hamann
     Using radial grid of  602 points,  4 beta functions with: 
                l(1) =   0
                l(2) =   0
                l(3) =   1
                l(4) =   1

     Mode symmetry, D_3d (-3m)  point group:


     Atomic displacements:
     There are    2 irreducible representations

     Representation     1      1 modes -  To be done

     Representation     2      2 modes -  To be done



     Alpha used in Ewald sum =   2.8000
     PHONON       :   1m17.43s CPU   1m22.12s WALL



     Representation #   1 mode #   1

     Self-consistent Calculation

      iter #   1 total cpu time :    83.1 secs   av.it.:   7.4
      thresh= 1.000E-02 alpha_mix =  0.700 |ddv_scf|^2 =  6.430E-04

      iter #   2 total cpu time :    84.1 secs   av.it.:   8.5
      thresh= 2.536E-03 alpha_mix =  0.700 |ddv_scf|^2 =  9.226E-04

      iter #   3 total cpu time :    85.1 secs   av.it.:   7.5
      thresh= 3.037E-03 alpha_mix =  0.700 |ddv_scf|^2 =  2.345E-07

      iter #   4 total cpu time :    86.1 secs   av.it.:   8.1
      thresh= 4.842E-05 alpha_mix =  0.700 |ddv_scf|^2 =  1.712E-09

      iter #   5 total cpu time :    87.1 secs   av.it.:   7.6
      thresh= 4.137E-06 alpha_mix =  0.700 |ddv_scf|^2 =  1.437E-11

      iter #   6 total cpu time :    88.1 secs   av.it.:   8.0
      thresh= 3.791E-07 alpha_mix =  0.700 |ddv_scf|^2 =  4.916E-14

      iter #   7 total cpu time :    89.2 secs   av.it.:   8.6
      thresh= 2.217E-08 alpha_mix =  0.700 |ddv_scf|^2 =  5.146E-16

      iter #   8 total cpu time :    90.3 secs   av.it.:   8.0
      thresh= 2.269E-09 alpha_mix =  0.700 |ddv_scf|^2 =  6.509E-17

     End of self-consistent calculation

     Convergence has been achieved 


     Representation #   2 modes #   2   3

     Self-consistent Calculation

      iter #   1 total cpu time :    92.2 secs   av.it.:   6.9
      thresh= 1.000E-02 alpha_mix =  0.700 |ddv_scf|^2 =  8.205E-06

      iter #   2 total cpu time :    94.4 secs   av.it.:   9.3
      thresh= 2.864E-04 alpha_mix =  0.700 |ddv_scf|^2 =  6.908E-08

      iter #   3 total cpu time :    96.5 secs   av.it.:   8.6
      thresh= 2.628E-05 alpha_mix =  0.700 |ddv_scf|^2 =  4.402E-09

      iter #   4 total cpu time :    98.5 secs   av.it.:   8.4
      thresh= 6.635E-06 alpha_mix =  0.700 |ddv_scf|^2 =  1.180E-11

      iter #   5 total cpu time :   100.6 secs   av.it.:   8.9
      thresh= 3.435E-07 alpha_mix =  0.700 |ddv_scf|^2 =  1.363E-14

      iter #   6 total cpu time :   102.6 secs   av.it.:   8.2
      thresh= 1.168E-08 alpha_mix =  0.700 |ddv_scf|^2 =  6.244E-16

      iter #   7 total cpu time :   104.6 secs   av.it.:   8.5
      thresh= 2.499E-09 alpha_mix =  0.700 |ddv_scf|^2 =  1.919E-19

     End of self-consistent calculation

     Convergence has been achieved 

     Number of q in the star =    4
     List of q in the star:
          1   0.500000000  -0.500000000   0.500000000
          2   0.500000000   0.500000000   0.500000000
          3  -0.500000000   0.500000000   0.500000000
          4   0.500000000   0.500000000  -0.500000000

     Diagonalizing the dynamical matrix

     q = (    0.500000000  -0.500000000   0.500000000 ) 

 **************************************************************************
     freq (    1) =       5.012583 [THz] =     167.201762 [cm-1]
     freq (    2) =       5.012583 [THz] =     167.201762 [cm-1]
     freq (    3) =      10.425025 [THz] =     347.741419 [cm-1]
 **************************************************************************

     Mode symmetry, D_3d (-3m)  point group:

     freq (   1-   2) =        167.2  [cm-1]   --> E_u  L_3'          
     freq (   3-   3) =        347.7  [cm-1]   --> A_2u L_2'          

     Calculation of q =    0.0000000   0.5000000   0.0000000

     Parallelization info
     --------------------
     sticks:   dense  smooth     PW     G-vecs:    dense   smooth      PW
     Min         159      63     23                 3262      817     177
     Max         160      64     24                 3266      819     179
     Sum         955     379    139                19579     4909    1067

     Using Slab Decomposition


     Title: 
     al                                                                         


     bravais-lattice index     =            2
     lattice parameter (alat)  =       7.4305  a.u.
     unit-cell volume          =     102.5647 (a.u.)^3
     number of atoms/cell      =            1
     number of atomic types    =            1
     number of electrons       =        11.00
     number of Kohn-Sham states=           10
     kinetic-energy cutoff     =      50.0000  Ry
     charge density cutoff     =     500.0000  Ry
     Exchange-correlation= PBE
                           (   1   4   3   4   0   0   0)

     celldm(1)=   7.430522  celldm(2)=   0.000000  celldm(3)=   0.000000
     celldm(4)=   0.000000  celldm(5)=   0.000000  celldm(6)=   0.000000

     crystal axes: (cart. coord. in units of alat)
               a(1) = (  -0.500000   0.000000   0.500000 )  
               a(2) = (   0.000000   0.500000   0.500000 )  
               a(3) = (  -0.500000   0.500000   0.000000 )  

     reciprocal axes: (cart. coord. in units 2 pi/alat)
               b(1) = ( -1.000000 -1.000000  1.000000 )  
               b(2) = (  1.000000  1.000000  1.000000 )  
               b(3) = ( -1.000000  1.000000 -1.000000 )  


     PseudoPot. # 1 for Al read from file:
     /home/bonacc_m/Downloads/sg15_oncv_upf_2020-02-06/Al_ONCV_PBE-1.2.upf
     MD5 check sum: 2d9e7bc02555220d62fad08c3c4858e7
     Pseudo is Norm-conserving, Zval = 11.0
     Generated using ONCVPSP code by D. R. Hamann
     Using radial grid of  602 points,  4 beta functions with: 
                l(1) =   0
                l(2) =   0
                l(3) =   1
                l(4) =   1

     atomic species   valence    mass     pseudopotential
        Al            11.00    26.98154     Al( 1.00)

     48 Sym. Ops., with inversion, found



   Cartesian axes

     site n.     atom                  positions (alat units)
         1           Al  tau(   1) = (   0.0000000   0.0000000   0.0000000  )

     number of k points=   588  Gaussian smearing, width (Ry)=  0.0100

     Number of k-points >= 100: set verbosity='high' to print them.

     Dense  grid:    19579 G-vectors     FFT dimensions: (  40,  40,  40)

     Smooth grid:     4909 G-vectors     FFT dimensions: (  24,  24,  24)

     Estimated max dynamical RAM per process >       1.98 MB

     Estimated total dynamical RAM >      11.87 MB

     The potential is recalculated from file :
     ./tmp/_ph0/al.save/charge-density

     Starting wfcs are    0 atomic +   10 random wfcs

     Band Structure Calculation
     Davidson diagonalization with overlap

     ethr =  9.09E-11,  avg # of iterations = 15.8

     total cpu time spent up to now is       29.9 secs

     End of band structure calculation

     Number of k-points >= 100: set verbosity='high' to print the bands.

     the Fermi energy is    11.9829 ev

     Writing config to output data dir ./tmp/_ph0/al.save/

     al                                                                         

     bravais-lattice index     =            2
     lattice parameter (alat)  =       7.4305  a.u.
     unit-cell volume          =     102.5647 (a.u.)^3
     number of atoms/cell      =            1
     number of atomic types    =            1
     kinetic-energy cut-off    =      50.0000  Ry
     charge density cut-off    =     500.0000  Ry
     convergence threshold     =      1.0E-16
     beta                      =       0.7000
     number of iterations used =            4
     Exchange-correlation= PBE
                           (   1   4   3   4   0   0   0)


     celldm(1)=    7.43052  celldm(2)=    0.00000  celldm(3)=    0.00000
     celldm(4)=    0.00000  celldm(5)=    0.00000  celldm(6)=    0.00000

     crystal axes: (cart. coord. in units of alat)
               a(1) = ( -0.5000  0.0000  0.5000 )  
               a(2) = (  0.0000  0.5000  0.5000 )  
               a(3) = ( -0.5000  0.5000  0.0000 )  

     reciprocal axes: (cart. coord. in units 2 pi/alat)
               b(1) = ( -1.0000 -1.0000  1.0000 )  
               b(2) = (  1.0000  1.0000  1.0000 )  
               b(3) = ( -1.0000  1.0000 -1.0000 )  


     Atoms inside the unit cell: 

     Cartesian axes

     site n.  atom      mass           positions (alat units)
        1     Al  26.9815   tau(    1) = (    0.00000    0.00000    0.00000  )

     Computing dynamical matrix for 
                    q = (   0.0000000   0.5000000   0.0000000 )

      8 Sym.Ops. (no q -> -q+G )


     G cutoff =  699.2765  (   3263 G-vectors)     FFT grid: ( 40, 40, 40)
     G cutoff =  279.7106  (    818 G-vectors)  smooth grid: ( 24, 24, 24)

     number of k points=   588  Gaussian smearing, width (Ry)=  0.0100

     PseudoPot. # 1 for Al read from file:
     /home/bonacc_m/Downloads/sg15_oncv_upf_2020-02-06/Al_ONCV_PBE-1.2.upf
     MD5 check sum: 2d9e7bc02555220d62fad08c3c4858e7
     Pseudo is Norm-conserving, Zval = 11.0
     Generated using ONCVPSP code by D. R. Hamann
     Using radial grid of  602 points,  4 beta functions with: 
                l(1) =   0
                l(2) =   0
                l(3) =   1
                l(4) =   1

     Mode symmetry, C_4v (4mm)  point group:


     Atomic displacements:
     There are    2 irreducible representations

     Representation     1      1 modes -  To be done

     Representation     2      2 modes -  To be done



     Alpha used in Ewald sum =   2.8000
     PHONON       :   1m48.36s CPU   1m54.97s WALL



     Representation #   1 mode #   1

     Self-consistent Calculation

      iter #   1 total cpu time :   116.5 secs   av.it.:   7.5
      thresh= 1.000E-02 alpha_mix =  0.700 |ddv_scf|^2 =  8.099E-03

      iter #   2 total cpu time :   118.0 secs   av.it.:   7.5
      thresh= 9.000E-03 alpha_mix =  0.700 |ddv_scf|^2 =  1.713E-01

      iter #   3 total cpu time :   119.6 secs   av.it.:   7.2
      thresh= 1.000E-02 alpha_mix =  0.700 |ddv_scf|^2 =  1.898E-06

      iter #   4 total cpu time :   121.4 secs   av.it.:   8.2
      thresh= 1.378E-04 alpha_mix =  0.700 |ddv_scf|^2 =  1.244E-08

      iter #   5 total cpu time :   122.9 secs   av.it.:   8.1
      thresh= 1.115E-05 alpha_mix =  0.700 |ddv_scf|^2 =  7.314E-10

      iter #   6 total cpu time :   124.5 secs   av.it.:   8.1
      thresh= 2.705E-06 alpha_mix =  0.700 |ddv_scf|^2 =  5.629E-12

      iter #   7 total cpu time :   126.0 secs   av.it.:   8.5
      thresh= 2.373E-07 alpha_mix =  0.700 |ddv_scf|^2 =  5.356E-11

      iter #   8 total cpu time :   127.3 secs   av.it.:   6.1
      thresh= 7.318E-07 alpha_mix =  0.700 |ddv_scf|^2 =  3.363E-14

      iter #   9 total cpu time :   128.9 secs   av.it.:   8.3
      thresh= 1.834E-08 alpha_mix =  0.700 |ddv_scf|^2 =  1.063E-15

      iter #  10 total cpu time :   130.5 secs   av.it.:   8.1
      thresh= 3.261E-09 alpha_mix =  0.700 |ddv_scf|^2 =  7.623E-15

      iter #  11 total cpu time :   131.8 secs   av.it.:   6.0
      thresh= 8.731E-09 alpha_mix =  0.700 |ddv_scf|^2 =  1.293E-17

     End of self-consistent calculation

     Convergence has been achieved 


     Representation #   2 modes #   2   3

     Self-consistent Calculation

      iter #   1 total cpu time :   134.7 secs   av.it.:   7.0
      thresh= 1.000E-02 alpha_mix =  0.700 |ddv_scf|^2 =  9.511E-06

      iter #   2 total cpu time :   138.2 secs   av.it.:   9.4
      thresh= 3.084E-04 alpha_mix =  0.700 |ddv_scf|^2 =  1.670E-07

      iter #   3 total cpu time :   141.6 secs   av.it.:   8.8
      thresh= 4.086E-05 alpha_mix =  0.700 |ddv_scf|^2 =  5.278E-09

      iter #   4 total cpu time :   144.9 secs   av.it.:   8.6
      thresh= 7.265E-06 alpha_mix =  0.700 |ddv_scf|^2 =  7.122E-11

      iter #   5 total cpu time :   148.1 secs   av.it.:   8.9
      thresh= 8.439E-07 alpha_mix =  0.700 |ddv_scf|^2 =  5.034E-14

      iter #   6 total cpu time :   151.5 secs   av.it.:   8.9
      thresh= 2.244E-08 alpha_mix =  0.700 |ddv_scf|^2 =  9.992E-16

      iter #   7 total cpu time :   154.8 secs   av.it.:   8.4
      thresh= 3.161E-09 alpha_mix =  0.700 |ddv_scf|^2 =  7.096E-18

     End of self-consistent calculation

     Convergence has been achieved 

     Number of q in the star =    6
     List of q in the star:
          1   0.000000000   0.500000000   0.000000000
          2   0.000000000  -0.500000000   0.000000000
          3   0.500000000   0.000000000   0.000000000
          4   0.000000000   0.000000000   0.500000000
          5   0.000000000   0.000000000  -0.500000000
          6  -0.500000000   0.000000000   0.000000000

     Diagonalizing the dynamical matrix

     q = (    0.000000000   0.500000000   0.000000000 ) 

 **************************************************************************
     freq (    1) =       4.930745 [THz] =     164.471958 [cm-1]
     freq (    2) =       4.930745 [THz] =     164.471958 [cm-1]
     freq (    3) =       7.883111 [THz] =     262.952278 [cm-1]
 **************************************************************************

     Mode symmetry, C_4v (4mm)  point group:

     freq (   1-   2) =        164.5  [cm-1]   --> E    G_5 D_5       
     freq (   3-   3) =        263.0  [cm-1]   --> A_1  G_1 D_1       

     Calculation of q =    0.7500000  -0.2500000   0.7500000

     Parallelization info
     --------------------
     sticks:   dense  smooth     PW     G-vecs:    dense   smooth      PW
     Min         159      62     26                 3262      817     215
     Max         160      64     28                 3266      819     216
     Sum         955     379    163                19579     4909    1291

     Using Slab Decomposition


     Title: 
     al                                                                         


     bravais-lattice index     =            2
     lattice parameter (alat)  =       7.4305  a.u.
     unit-cell volume          =     102.5647 (a.u.)^3
     number of atoms/cell      =            1
     number of atomic types    =            1
     number of electrons       =        11.00
     number of Kohn-Sham states=           10
     kinetic-energy cutoff     =      50.0000  Ry
     charge density cutoff     =     500.0000  Ry
     Exchange-correlation= PBE
                           (   1   4   3   4   0   0   0)

     celldm(1)=   7.430522  celldm(2)=   0.000000  celldm(3)=   0.000000
     celldm(4)=   0.000000  celldm(5)=   0.000000  celldm(6)=   0.000000

     crystal axes: (cart. coord. in units of alat)
               a(1) = (  -0.500000   0.000000   0.500000 )  
               a(2) = (   0.000000   0.500000   0.500000 )  
               a(3) = (  -0.500000   0.500000   0.000000 )  

     reciprocal axes: (cart. coord. in units 2 pi/alat)
               b(1) = ( -1.000000 -1.000000  1.000000 )  
               b(2) = (  1.000000  1.000000  1.000000 )  
               b(3) = ( -1.000000  1.000000 -1.000000 )  


     PseudoPot. # 1 for Al read from file:
     /home/bonacc_m/Downloads/sg15_oncv_upf_2020-02-06/Al_ONCV_PBE-1.2.upf
     MD5 check sum: 2d9e7bc02555220d62fad08c3c4858e7
     Pseudo is Norm-conserving, Zval = 11.0
     Generated using ONCVPSP code by D. R. Hamann
     Using radial grid of  602 points,  4 beta functions with: 
                l(1) =   0
                l(2) =   0
                l(3) =   1
                l(4) =   1

     atomic species   valence    mass     pseudopotential
        Al            11.00    26.98154     Al( 1.00)

     48 Sym. Ops., with inversion, found



   Cartesian axes

     site n.     atom                  positions (alat units)
         1           Al  tau(   1) = (   0.0000000   0.0000000   0.0000000  )

     number of k points=  1872  Gaussian smearing, width (Ry)=  0.0100

     Number of k-points >= 100: set verbosity='high' to print them.

     Dense  grid:    19579 G-vectors     FFT dimensions: (  40,  40,  40)

     Smooth grid:     4909 G-vectors     FFT dimensions: (  24,  24,  24)

     Estimated max dynamical RAM per process >       1.99 MB

     Estimated total dynamical RAM >      11.95 MB

     The potential is recalculated from file :
     ./tmp/_ph0/al.save/charge-density

     Starting wfcs are    0 atomic +   10 random wfcs

     Band Structure Calculation
     Davidson diagonalization with overlap

     ethr =  9.09E-11,  avg # of iterations = 15.9

     total cpu time spent up to now is       63.7 secs

     End of band structure calculation

     Number of k-points >= 100: set verbosity='high' to print the bands.

     the Fermi energy is    11.9829 ev

     Writing config to output data dir ./tmp/_ph0/al.save/

     al                                                                         

     bravais-lattice index     =            2
     lattice parameter (alat)  =       7.4305  a.u.
     unit-cell volume          =     102.5647 (a.u.)^3
     number of atoms/cell      =            1
     number of atomic types    =            1
     kinetic-energy cut-off    =      50.0000  Ry
     charge density cut-off    =     500.0000  Ry
     convergence threshold     =      1.0E-16
     beta                      =       0.7000
     number of iterations used =            4
     Exchange-correlation= PBE
                           (   1   4   3   4   0   0   0)


     celldm(1)=    7.43052  celldm(2)=    0.00000  celldm(3)=    0.00000
     celldm(4)=    0.00000  celldm(5)=    0.00000  celldm(6)=    0.00000

     crystal axes: (cart. coord. in units of alat)
               a(1) = ( -0.5000  0.0000  0.5000 )  
               a(2) = (  0.0000  0.5000  0.5000 )  
               a(3) = ( -0.5000  0.5000  0.0000 )  

     reciprocal axes: (cart. coord. in units 2 pi/alat)
               b(1) = ( -1.0000 -1.0000  1.0000 )  
               b(2) = (  1.0000  1.0000  1.0000 )  
               b(3) = ( -1.0000  1.0000 -1.0000 )  


     Atoms inside the unit cell: 

     Cartesian axes

     site n.  atom      mass           positions (alat units)
        1     Al  26.9815   tau(    1) = (    0.00000    0.00000    0.00000  )

     Computing dynamical matrix for 
                    q = (   0.7500000  -0.2500000   0.7500000 )

      2 Sym.Ops. (no q -> -q+G )


     G cutoff =  699.2765  (   3263 G-vectors)     FFT grid: ( 40, 40, 40)
     G cutoff =  279.7106  (    818 G-vectors)  smooth grid: ( 24, 24, 24)

     number of k points=  1872  Gaussian smearing, width (Ry)=  0.0100

     PseudoPot. # 1 for Al read from file:
     /home/bonacc_m/Downloads/sg15_oncv_upf_2020-02-06/Al_ONCV_PBE-1.2.upf
     MD5 check sum: 2d9e7bc02555220d62fad08c3c4858e7
     Pseudo is Norm-conserving, Zval = 11.0
     Generated using ONCVPSP code by D. R. Hamann
     Using radial grid of  602 points,  4 beta functions with: 
                l(1) =   0
                l(2) =   0
                l(3) =   1
                l(4) =   1

     Mode symmetry, C_s (m)     point group:


     Atomic displacements:
     There are    3 irreducible representations

     Representation     1      1 modes -  To be done

     Representation     2      1 modes -  To be done

     Representation     3      1 modes -  To be done



     Alpha used in Ewald sum =   2.8000
     PHONON       :   2m58.56s CPU   3m 9.16s WALL



     Representation #   1 mode #   1

     Self-consistent Calculation

      iter #   1 total cpu time :   194.4 secs   av.it.:   7.5
      thresh= 1.000E-02 alpha_mix =  0.700 |ddv_scf|^2 =  4.057E-04

      iter #   2 total cpu time :   199.7 secs   av.it.:   8.7
      thresh= 2.014E-03 alpha_mix =  0.700 |ddv_scf|^2 =  5.448E-04

      iter #   3 total cpu time :   204.4 secs   av.it.:   7.6
      thresh= 2.334E-03 alpha_mix =  0.700 |ddv_scf|^2 =  2.471E-06

      iter #   4 total cpu time :   209.5 secs   av.it.:   8.3
      thresh= 1.572E-04 alpha_mix =  0.700 |ddv_scf|^2 =  5.065E-08

      iter #   5 total cpu time :   214.7 secs   av.it.:   8.4
      thresh= 2.251E-05 alpha_mix =  0.700 |ddv_scf|^2 =  9.983E-10

      iter #   6 total cpu time :   219.8 secs   av.it.:   8.5
      thresh= 3.160E-06 alpha_mix =  0.700 |ddv_scf|^2 =  4.960E-11

      iter #   7 total cpu time :   224.9 secs   av.it.:   8.3
      thresh= 7.043E-07 alpha_mix =  0.700 |ddv_scf|^2 =  1.289E-12

      iter #   8 total cpu time :   230.2 secs   av.it.:   8.6
      thresh= 1.135E-07 alpha_mix =  0.700 |ddv_scf|^2 =  1.819E-14

      iter #   9 total cpu time :   235.5 secs   av.it.:   8.5
      thresh= 1.349E-08 alpha_mix =  0.700 |ddv_scf|^2 =  2.718E-15

      iter #  10 total cpu time :   240.6 secs   av.it.:   8.2
      thresh= 5.213E-09 alpha_mix =  0.700 |ddv_scf|^2 =  5.963E-16

      iter #  11 total cpu time :   245.5 secs   av.it.:   8.1
      thresh= 2.442E-09 alpha_mix =  0.700 |ddv_scf|^2 =  7.373E-17

     End of self-consistent calculation

     Convergence has been achieved 


     Representation #   2 mode #   2

     Self-consistent Calculation

      iter #   1 total cpu time :   250.6 secs   av.it.:   7.4
      thresh= 1.000E-02 alpha_mix =  0.700 |ddv_scf|^2 =  1.096E-04

      iter #   2 total cpu time :   255.9 secs   av.it.:   8.9
      thresh= 1.047E-03 alpha_mix =  0.700 |ddv_scf|^2 =  8.353E-05

      iter #   3 total cpu time :   260.8 secs   av.it.:   7.9
      thresh= 9.139E-04 alpha_mix =  0.700 |ddv_scf|^2 =  3.441E-06

      iter #   4 total cpu time :   265.7 secs   av.it.:   8.1
      thresh= 1.855E-04 alpha_mix =  0.700 |ddv_scf|^2 =  5.346E-08

      iter #   5 total cpu time :   270.9 secs   av.it.:   8.5
      thresh= 2.312E-05 alpha_mix =  0.700 |ddv_scf|^2 =  3.487E-09

      iter #   6 total cpu time :   276.4 secs   av.it.:   8.4
      thresh= 5.905E-06 alpha_mix =  0.700 |ddv_scf|^2 =  9.698E-11

      iter #   7 total cpu time :   281.5 secs   av.it.:   8.3
      thresh= 9.848E-07 alpha_mix =  0.700 |ddv_scf|^2 =  7.217E-13

      iter #   8 total cpu time :   286.9 secs   av.it.:   8.6
      thresh= 8.495E-08 alpha_mix =  0.700 |ddv_scf|^2 =  8.119E-14

      iter #   9 total cpu time :   292.2 secs   av.it.:   8.5
      thresh= 2.849E-08 alpha_mix =  0.700 |ddv_scf|^2 =  2.349E-14

      iter #  10 total cpu time :   297.1 secs   av.it.:   8.0
      thresh= 1.533E-08 alpha_mix =  0.700 |ddv_scf|^2 =  4.698E-16

      iter #  11 total cpu time :   302.5 secs   av.it.:   8.5
      thresh= 2.168E-09 alpha_mix =  0.700 |ddv_scf|^2 =  4.160E-17

     End of self-consistent calculation

     Convergence has been achieved 


     Representation #   3 mode #   3

     Self-consistent Calculation

      iter #   1 total cpu time :   307.7 secs   av.it.:   7.1
      thresh= 1.000E-02 alpha_mix =  0.700 |ddv_scf|^2 =  4.113E-05

      iter #   2 total cpu time :   313.1 secs   av.it.:   8.8
      thresh= 6.413E-04 alpha_mix =  0.700 |ddv_scf|^2 =  9.115E-07

      iter #   3 total cpu time :   318.2 secs   av.it.:   8.4
      thresh= 9.547E-05 alpha_mix =  0.700 |ddv_scf|^2 =  2.239E-08

      iter #   4 total cpu time :   323.1 secs   av.it.:   8.1
      thresh= 1.496E-05 alpha_mix =  0.700 |ddv_scf|^2 =  2.756E-10

      iter #   5 total cpu time :   328.0 secs   av.it.:   8.3
      thresh= 1.660E-06 alpha_mix =  0.700 |ddv_scf|^2 =  3.402E-13

      iter #   6 total cpu time :   333.1 secs   av.it.:   8.5
      thresh= 5.833E-08 alpha_mix =  0.700 |ddv_scf|^2 =  4.001E-15

      iter #   7 total cpu time :   338.0 secs   av.it.:   8.0
      thresh= 6.326E-09 alpha_mix =  0.700 |ddv_scf|^2 =  8.162E-17

     End of self-consistent calculation

     Convergence has been achieved 

     Number of q in the star =   24
     List of q in the star:
          1   0.750000000  -0.250000000   0.750000000
          2   0.750000000  -0.250000000  -0.750000000
          3  -0.750000000  -0.250000000  -0.750000000
          4  -0.750000000  -0.250000000   0.750000000
          5  -0.750000000   0.250000000  -0.750000000
          6  -0.250000000   0.750000000  -0.750000000
          7  -0.750000000   0.750000000  -0.250000000
          8   0.750000000   0.250000000   0.750000000
          9  -0.750000000   0.250000000   0.750000000
         10   0.750000000   0.250000000  -0.750000000
         11  -0.750000000   0.750000000   0.250000000
         12  -0.250000000   0.750000000   0.750000000
         13   0.250000000   0.750000000  -0.750000000
         14  -0.250000000  -0.750000000  -0.750000000
         15   0.750000000   0.750000000  -0.250000000
         16   0.750000000  -0.750000000   0.250000000
         17  -0.750000000  -0.750000000  -0.250000000
         18   0.250000000  -0.750000000   0.750000000
         19  -0.750000000  -0.750000000   0.250000000
         20   0.250000000   0.750000000   0.750000000
         21  -0.250000000  -0.750000000   0.750000000
         22   0.750000000   0.750000000   0.250000000
         23   0.250000000  -0.750000000  -0.750000000
         24   0.750000000  -0.750000000  -0.250000000

     Diagonalizing the dynamical matrix

     q = (    0.750000000  -0.250000000   0.750000000 ) 

 **************************************************************************
     freq (    1) =       6.156606 [THz] =     205.362267 [cm-1]
     freq (    2) =       7.690814 [THz] =     256.537925 [cm-1]
     freq (    3) =      10.266591 [THz] =     342.456622 [cm-1]
 **************************************************************************

     Mode symmetry, C_s (m)     point group:

     freq (   1-   1) =        205.4  [cm-1]   --> A''                
     freq (   2-   2) =        256.5  [cm-1]   --> A'                 
     freq (   3-   3) =        342.5  [cm-1]   --> A'                 

     Calculation of q =    0.5000000   0.0000000   0.5000000

     Parallelization info
     --------------------
     sticks:   dense  smooth     PW     G-vecs:    dense   smooth      PW
     Min         159      63     25                 3262      817     201
     Max         160      64     26                 3266      819     204
     Sum         955     379    151                19579     4909    1211

     Using Slab Decomposition


     Title: 
     al                                                                         


     bravais-lattice index     =            2
     lattice parameter (alat)  =       7.4305  a.u.
     unit-cell volume          =     102.5647 (a.u.)^3
     number of atoms/cell      =            1
     number of atomic types    =            1
     number of electrons       =        11.00
     number of Kohn-Sham states=           10
     kinetic-energy cutoff     =      50.0000  Ry
     charge density cutoff     =     500.0000  Ry
     Exchange-correlation= PBE
                           (   1   4   3   4   0   0   0)

     celldm(1)=   7.430522  celldm(2)=   0.000000  celldm(3)=   0.000000
     celldm(4)=   0.000000  celldm(5)=   0.000000  celldm(6)=   0.000000

     crystal axes: (cart. coord. in units of alat)
               a(1) = (  -0.500000   0.000000   0.500000 )  
               a(2) = (   0.000000   0.500000   0.500000 )  
               a(3) = (  -0.500000   0.500000   0.000000 )  

     reciprocal axes: (cart. coord. in units 2 pi/alat)
               b(1) = ( -1.000000 -1.000000  1.000000 )  
               b(2) = (  1.000000  1.000000  1.000000 )  
               b(3) = ( -1.000000  1.000000 -1.000000 )  


     PseudoPot. # 1 for Al read from file:
     /home/bonacc_m/Downloads/sg15_oncv_upf_2020-02-06/Al_ONCV_PBE-1.2.upf
     MD5 check sum: 2d9e7bc02555220d62fad08c3c4858e7
     Pseudo is Norm-conserving, Zval = 11.0
     Generated using ONCVPSP code by D. R. Hamann
     Using radial grid of  602 points,  4 beta functions with: 
                l(1) =   0
                l(2) =   0
                l(3) =   1
                l(4) =   1

     atomic species   valence    mass     pseudopotential
        Al            11.00    26.98154     Al( 1.00)

     48 Sym. Ops., with inversion, found



   Cartesian axes

     site n.     atom                  positions (alat units)
         1           Al  tau(   1) = (   0.0000000   0.0000000   0.0000000  )

     number of k points=  1020  Gaussian smearing, width (Ry)=  0.0100

     Number of k-points >= 100: set verbosity='high' to print them.

     Dense  grid:    19579 G-vectors     FFT dimensions: (  40,  40,  40)

     Smooth grid:     4909 G-vectors     FFT dimensions: (  24,  24,  24)

     Estimated max dynamical RAM per process >       1.98 MB

     Estimated total dynamical RAM >      11.90 MB

     The potential is recalculated from file :
     ./tmp/_ph0/al.save/charge-density

     Starting wfcs are    0 atomic +   10 random wfcs

     Band Structure Calculation
     Davidson diagonalization with overlap

     ethr =  9.09E-11,  avg # of iterations = 15.8

     total cpu time spent up to now is       81.6 secs

     End of band structure calculation

     Number of k-points >= 100: set verbosity='high' to print the bands.

     the Fermi energy is    11.9829 ev

     Writing config to output data dir ./tmp/_ph0/al.save/

     al                                                                         

     bravais-lattice index     =            2
     lattice parameter (alat)  =       7.4305  a.u.
     unit-cell volume          =     102.5647 (a.u.)^3
     number of atoms/cell      =            1
     number of atomic types    =            1
     kinetic-energy cut-off    =      50.0000  Ry
     charge density cut-off    =     500.0000  Ry
     convergence threshold     =      1.0E-16
     beta                      =       0.7000
     number of iterations used =            4
     Exchange-correlation= PBE
                           (   1   4   3   4   0   0   0)


     celldm(1)=    7.43052  celldm(2)=    0.00000  celldm(3)=    0.00000
     celldm(4)=    0.00000  celldm(5)=    0.00000  celldm(6)=    0.00000

     crystal axes: (cart. coord. in units of alat)
               a(1) = ( -0.5000  0.0000  0.5000 )  
               a(2) = (  0.0000  0.5000  0.5000 )  
               a(3) = ( -0.5000  0.5000  0.0000 )  

     reciprocal axes: (cart. coord. in units 2 pi/alat)
               b(1) = ( -1.0000 -1.0000  1.0000 )  
               b(2) = (  1.0000  1.0000  1.0000 )  
               b(3) = ( -1.0000  1.0000 -1.0000 )  


     Atoms inside the unit cell: 

     Cartesian axes

     site n.  atom      mass           positions (alat units)
        1     Al  26.9815   tau(    1) = (    0.00000    0.00000    0.00000  )

     Computing dynamical matrix for 
                    q = (   0.5000000   0.0000000   0.5000000 )

      4 Sym.Ops. (no q -> -q+G )


     G cutoff =  699.2765  (   3263 G-vectors)     FFT grid: ( 40, 40, 40)
     G cutoff =  279.7106  (    819 G-vectors)  smooth grid: ( 24, 24, 24)

     number of k points=  1020  Gaussian smearing, width (Ry)=  0.0100

     PseudoPot. # 1 for Al read from file:
     /home/bonacc_m/Downloads/sg15_oncv_upf_2020-02-06/Al_ONCV_PBE-1.2.upf
     MD5 check sum: 2d9e7bc02555220d62fad08c3c4858e7
     Pseudo is Norm-conserving, Zval = 11.0
     Generated using ONCVPSP code by D. R. Hamann
     Using radial grid of  602 points,  4 beta functions with: 
                l(1) =   0
                l(2) =   0
                l(3) =   1
                l(4) =   1

     Mode symmetry, C_2v (mm2)  point group:


     Atomic displacements:
     There are    3 irreducible representations

     Representation     1      1 modes -  To be done

     Representation     2      1 modes -  To be done

     Representation     3      1 modes -  To be done



     Alpha used in Ewald sum =   2.8000
     PHONON       :   5m35.03s CPU   5m56.17s WALL



     Representation #   1 mode #   1

     Self-consistent Calculation

      iter #   1 total cpu time :   359.0 secs   av.it.:   7.5
      thresh= 1.000E-02 alpha_mix =  0.700 |ddv_scf|^2 =  1.012E-03

      iter #   2 total cpu time :   361.7 secs   av.it.:   8.1
      thresh= 3.182E-03 alpha_mix =  0.700 |ddv_scf|^2 =  3.733E-03

      iter #   3 total cpu time :   364.1 secs   av.it.:   6.9
      thresh= 6.110E-03 alpha_mix =  0.700 |ddv_scf|^2 =  1.509E-06

      iter #   4 total cpu time :   366.9 secs   av.it.:   8.5
      thresh= 1.228E-04 alpha_mix =  0.700 |ddv_scf|^2 =  3.175E-08

      iter #   5 total cpu time :   369.6 secs   av.it.:   8.2
      thresh= 1.782E-05 alpha_mix =  0.700 |ddv_scf|^2 =  6.293E-10

      iter #   6 total cpu time :   372.3 secs   av.it.:   8.2
      thresh= 2.509E-06 alpha_mix =  0.700 |ddv_scf|^2 =  3.785E-12

      iter #   7 total cpu time :   375.0 secs   av.it.:   8.6
      thresh= 1.946E-07 alpha_mix =  0.700 |ddv_scf|^2 =  6.425E-14

      iter #   8 total cpu time :   377.9 secs   av.it.:   8.9
      thresh= 2.535E-08 alpha_mix =  0.700 |ddv_scf|^2 =  4.181E-14

      iter #   9 total cpu time :   380.3 secs   av.it.:   7.3
      thresh= 2.045E-08 alpha_mix =  0.700 |ddv_scf|^2 =  5.802E-15

      iter #  10 total cpu time :   382.8 secs   av.it.:   7.7
      thresh= 7.617E-09 alpha_mix =  0.700 |ddv_scf|^2 =  6.758E-16

      iter #  11 total cpu time :   385.3 secs   av.it.:   7.5
      thresh= 2.600E-09 alpha_mix =  0.700 |ddv_scf|^2 =  1.614E-17

     End of self-consistent calculation

     Convergence has been achieved 


     Representation #   2 mode #   2

     Self-consistent Calculation

      iter #   1 total cpu time :   387.9 secs   av.it.:   7.0
      thresh= 1.000E-02 alpha_mix =  0.700 |ddv_scf|^2 =  3.351E-05

      iter #   2 total cpu time :   390.8 secs   av.it.:   8.7
      thresh= 5.789E-04 alpha_mix =  0.700 |ddv_scf|^2 =  3.600E-07

      iter #   3 total cpu time :   393.4 secs   av.it.:   8.4
      thresh= 6.000E-05 alpha_mix =  0.700 |ddv_scf|^2 =  1.858E-08

      iter #   4 total cpu time :   396.3 secs   av.it.:   7.9
      thresh= 1.363E-05 alpha_mix =  0.700 |ddv_scf|^2 =  1.563E-10

      iter #   5 total cpu time :   399.1 secs   av.it.:   8.3
      thresh= 1.250E-06 alpha_mix =  0.700 |ddv_scf|^2 =  2.243E-13

      iter #   6 total cpu time :   401.9 secs   av.it.:   8.5
      thresh= 4.736E-08 alpha_mix =  0.700 |ddv_scf|^2 =  1.590E-15

      iter #   7 total cpu time :   404.3 secs   av.it.:   7.4
      thresh= 3.988E-09 alpha_mix =  0.700 |ddv_scf|^2 =  3.371E-17

     End of self-consistent calculation

     Convergence has been achieved 


     Representation #   3 mode #   3

     Self-consistent Calculation

      iter #   1 total cpu time :   407.0 secs   av.it.:   7.2
      thresh= 1.000E-02 alpha_mix =  0.700 |ddv_scf|^2 =  7.477E-05

      iter #   2 total cpu time :   409.8 secs   av.it.:   8.7
      thresh= 8.647E-04 alpha_mix =  0.700 |ddv_scf|^2 =  1.000E-05

      iter #   3 total cpu time :   412.5 secs   av.it.:   8.0
      thresh= 3.162E-04 alpha_mix =  0.700 |ddv_scf|^2 =  3.427E-08

      iter #   4 total cpu time :   415.2 secs   av.it.:   8.4
      thresh= 1.851E-05 alpha_mix =  0.700 |ddv_scf|^2 =  1.422E-09

      iter #   5 total cpu time :   417.9 secs   av.it.:   7.8
      thresh= 3.772E-06 alpha_mix =  0.700 |ddv_scf|^2 =  9.869E-13

      iter #   6 total cpu time :   420.6 secs   av.it.:   8.5
      thresh= 9.934E-08 alpha_mix =  0.700 |ddv_scf|^2 =  1.481E-14

      iter #   7 total cpu time :   423.3 secs   av.it.:   8.2
      thresh= 1.217E-08 alpha_mix =  0.700 |ddv_scf|^2 =  2.242E-16

      iter #   8 total cpu time :   426.0 secs   av.it.:   8.5
      thresh= 1.497E-09 alpha_mix =  0.700 |ddv_scf|^2 =  3.152E-19

     End of self-consistent calculation

     Convergence has been achieved 

     Number of q in the star =   12
     List of q in the star:
          1   0.500000000   0.000000000   0.500000000
          2  -0.500000000   0.000000000   0.500000000
          3  -0.500000000   0.000000000  -0.500000000
          4   0.500000000   0.000000000  -0.500000000
          5   0.000000000   0.500000000  -0.500000000
          6  -0.500000000   0.500000000   0.000000000
          7   0.000000000   0.500000000   0.500000000
          8   0.000000000  -0.500000000  -0.500000000
          9   0.500000000   0.500000000   0.000000000
         10   0.500000000  -0.500000000   0.000000000
         11  -0.500000000  -0.500000000   0.000000000
         12   0.000000000  -0.500000000   0.500000000

     Diagonalizing the dynamical matrix

     q = (    0.500000000   0.000000000   0.500000000 ) 

 **************************************************************************
     freq (    1) =       5.359176 [THz] =     178.762869 [cm-1]
     freq (    2) =       7.257751 [THz] =     242.092500 [cm-1]
     freq (    3) =       9.561335 [THz] =     318.931812 [cm-1]
 **************************************************************************

     Mode symmetry, C_2v (mm2)  point group:

     freq (   1-   1) =        178.8  [cm-1]   --> B_1  D_3  S_3      
     freq (   2-   2) =        242.1  [cm-1]   --> B_2  D_4  S_4      
     freq (   3-   3) =        318.9  [cm-1]   --> A_1  D_1  S_1      

     Calculation of q =    0.0000000  -1.0000000   0.0000000

     Parallelization info
     --------------------
     sticks:   dense  smooth     PW     G-vecs:    dense   smooth      PW
     Min         159      63     25                 3262      817     206
     Max         160      64     26                 3266      819     209
     Sum         955     379    151                19579     4909    1243

     Using Slab Decomposition


     Title: 
     al                                                                         


     bravais-lattice index     =            2
     lattice parameter (alat)  =       7.4305  a.u.
     unit-cell volume          =     102.5647 (a.u.)^3
     number of atoms/cell      =            1
     number of atomic types    =            1
     number of electrons       =        11.00
     number of Kohn-Sham states=           10
     kinetic-energy cutoff     =      50.0000  Ry
     charge density cutoff     =     500.0000  Ry
     Exchange-correlation= PBE
                           (   1   4   3   4   0   0   0)

     celldm(1)=   7.430522  celldm(2)=   0.000000  celldm(3)=   0.000000
     celldm(4)=   0.000000  celldm(5)=   0.000000  celldm(6)=   0.000000

     crystal axes: (cart. coord. in units of alat)
               a(1) = (  -0.500000   0.000000   0.500000 )  
               a(2) = (   0.000000   0.500000   0.500000 )  
               a(3) = (  -0.500000   0.500000   0.000000 )  

     reciprocal axes: (cart. coord. in units 2 pi/alat)
               b(1) = ( -1.000000 -1.000000  1.000000 )  
               b(2) = (  1.000000  1.000000  1.000000 )  
               b(3) = ( -1.000000  1.000000 -1.000000 )  


     PseudoPot. # 1 for Al read from file:
     /home/bonacc_m/Downloads/sg15_oncv_upf_2020-02-06/Al_ONCV_PBE-1.2.upf
     MD5 check sum: 2d9e7bc02555220d62fad08c3c4858e7
     Pseudo is Norm-conserving, Zval = 11.0
     Generated using ONCVPSP code by D. R. Hamann
     Using radial grid of  602 points,  4 beta functions with: 
                l(1) =   0
                l(2) =   0
                l(3) =   1
                l(4) =   1

     atomic species   valence    mass     pseudopotential
        Al            11.00    26.98154     Al( 1.00)

     48 Sym. Ops., with inversion, found



   Cartesian axes

     site n.     atom                  positions (alat units)
         1           Al  tau(   1) = (   0.0000000   0.0000000   0.0000000  )

     number of k points=   326  Gaussian smearing, width (Ry)=  0.0100

     Number of k-points >= 100: set verbosity='high' to print them.

     Dense  grid:    19579 G-vectors     FFT dimensions: (  40,  40,  40)

     Smooth grid:     4909 G-vectors     FFT dimensions: (  24,  24,  24)

     Estimated max dynamical RAM per process >       1.99 MB

     Estimated total dynamical RAM >      11.94 MB

     The potential is recalculated from file :
     ./tmp/_ph0/al.save/charge-density

     Starting wfcs are    0 atomic +   10 random wfcs

     Band Structure Calculation
     Davidson diagonalization with overlap

     ethr =  9.09E-11,  avg # of iterations = 15.7

     total cpu time spent up to now is       87.3 secs

     End of band structure calculation

     Number of k-points >= 100: set verbosity='high' to print the bands.

     the Fermi energy is    11.9829 ev

     Writing config to output data dir ./tmp/_ph0/al.save/

     al                                                                         

     bravais-lattice index     =            2
     lattice parameter (alat)  =       7.4305  a.u.
     unit-cell volume          =     102.5647 (a.u.)^3
     number of atoms/cell      =            1
     number of atomic types    =            1
     kinetic-energy cut-off    =      50.0000  Ry
     charge density cut-off    =     500.0000  Ry
     convergence threshold     =      1.0E-16
     beta                      =       0.7000
     number of iterations used =            4
     Exchange-correlation= PBE
                           (   1   4   3   4   0   0   0)


     celldm(1)=    7.43052  celldm(2)=    0.00000  celldm(3)=    0.00000
     celldm(4)=    0.00000  celldm(5)=    0.00000  celldm(6)=    0.00000

     crystal axes: (cart. coord. in units of alat)
               a(1) = ( -0.5000  0.0000  0.5000 )  
               a(2) = (  0.0000  0.5000  0.5000 )  
               a(3) = ( -0.5000  0.5000  0.0000 )  

     reciprocal axes: (cart. coord. in units 2 pi/alat)
               b(1) = ( -1.0000 -1.0000  1.0000 )  
               b(2) = (  1.0000  1.0000  1.0000 )  
               b(3) = ( -1.0000  1.0000 -1.0000 )  


     Atoms inside the unit cell: 

     Cartesian axes

     site n.  atom      mass           positions (alat units)
        1     Al  26.9815   tau(    1) = (    0.00000    0.00000    0.00000  )

     Computing dynamical matrix for 
                    q = (   0.0000000  -1.0000000   0.0000000 )

     17 Sym.Ops. (with q -> -q+G )


     G cutoff =  699.2765  (   3263 G-vectors)     FFT grid: ( 40, 40, 40)
     G cutoff =  279.7106  (    818 G-vectors)  smooth grid: ( 24, 24, 24)

     number of k points=   326  Gaussian smearing, width (Ry)=  0.0100

     PseudoPot. # 1 for Al read from file:
     /home/bonacc_m/Downloads/sg15_oncv_upf_2020-02-06/Al_ONCV_PBE-1.2.upf
     MD5 check sum: 2d9e7bc02555220d62fad08c3c4858e7
     Pseudo is Norm-conserving, Zval = 11.0
     Generated using ONCVPSP code by D. R. Hamann
     Using radial grid of  602 points,  4 beta functions with: 
                l(1) =   0
                l(2) =   0
                l(3) =   1
                l(4) =   1

     Mode symmetry, D_4h(4/mmm) point group:


     Atomic displacements:
     There are    2 irreducible representations

     Representation     1      1 modes -  To be done

     Representation     2      2 modes -  To be done



     Alpha used in Ewald sum =   2.8000
     PHONON       :   6m46.05s CPU   7m11.83s WALL



     Representation #   1 mode #   1

     Self-consistent Calculation

      iter #   1 total cpu time :   432.7 secs   av.it.:   7.2
      thresh= 1.000E-02 alpha_mix =  0.700 |ddv_scf|^2 =  2.509E-04

      iter #   2 total cpu time :   433.5 secs   av.it.:   8.3
      thresh= 1.584E-03 alpha_mix =  0.700 |ddv_scf|^2 =  1.164E-04

      iter #   3 total cpu time :   434.4 secs   av.it.:   7.4
      thresh= 1.079E-03 alpha_mix =  0.700 |ddv_scf|^2 =  8.594E-08

      iter #   4 total cpu time :   435.3 secs   av.it.:   8.2
      thresh= 2.932E-05 alpha_mix =  0.700 |ddv_scf|^2 =  9.249E-10

      iter #   5 total cpu time :   436.2 secs   av.it.:   7.5
      thresh= 3.041E-06 alpha_mix =  0.700 |ddv_scf|^2 =  1.338E-12

      iter #   6 total cpu time :   437.0 secs   av.it.:   7.8
      thresh= 1.157E-07 alpha_mix =  0.700 |ddv_scf|^2 =  1.724E-14

      iter #   7 total cpu time :   437.9 secs   av.it.:   8.1
      thresh= 1.313E-08 alpha_mix =  0.700 |ddv_scf|^2 =  1.703E-17

     End of self-consistent calculation

     Convergence has been achieved 


     Representation #   2 modes #   2   3

     Self-consistent Calculation

      iter #   1 total cpu time :   439.6 secs   av.it.:   7.1
      thresh= 1.000E-02 alpha_mix =  0.700 |ddv_scf|^2 =  1.255E-05

      iter #   2 total cpu time :   441.5 secs   av.it.:   9.4
      thresh= 3.542E-04 alpha_mix =  0.700 |ddv_scf|^2 =  4.732E-07

      iter #   3 total cpu time :   443.4 secs   av.it.:   8.6
      thresh= 6.879E-05 alpha_mix =  0.700 |ddv_scf|^2 =  6.511E-09

      iter #   4 total cpu time :   445.3 secs   av.it.:   8.7
      thresh= 8.069E-06 alpha_mix =  0.700 |ddv_scf|^2 =  6.796E-11

      iter #   5 total cpu time :   447.2 secs   av.it.:   8.7
      thresh= 8.244E-07 alpha_mix =  0.700 |ddv_scf|^2 =  3.069E-14

      iter #   6 total cpu time :   449.0 secs   av.it.:   8.4
      thresh= 1.752E-08 alpha_mix =  0.700 |ddv_scf|^2 =  2.072E-15

      iter #   7 total cpu time :   450.8 secs   av.it.:   8.5
      thresh= 4.552E-09 alpha_mix =  0.700 |ddv_scf|^2 =  1.176E-18

     End of self-consistent calculation

     Convergence has been achieved 

     Number of q in the star =    3
     List of q in the star:
          1   0.000000000  -1.000000000   0.000000000
          2  -1.000000000   0.000000000   0.000000000
          3   0.000000000   0.000000000  -1.000000000

     Diagonalizing the dynamical matrix

     q = (    0.000000000  -1.000000000   0.000000000 ) 

 **************************************************************************
     freq (    1) =       6.924585 [THz] =     230.979299 [cm-1]
     freq (    2) =       6.924585 [THz] =     230.979299 [cm-1]
     freq (    3) =      11.480036 [THz] =     382.932788 [cm-1]
 **************************************************************************

     Mode symmetry, D_4h(4/mmm) point group:

     freq (   1-   2) =        231.0  [cm-1]   --> E_u  X_5' M_5'     
     freq (   3-   3) =        382.9  [cm-1]   --> A_2u X_4' M_4'     

     Calculation of q =   -0.5000000  -1.0000000   0.0000000

     Parallelization info
     --------------------
     sticks:   dense  smooth     PW     G-vecs:    dense   smooth      PW
     Min         159      63     25                 3262      817     206
     Max         160      64     26                 3266      819     209
     Sum         955     379    151                19579     4909    1243

     Using Slab Decomposition


     Title: 
     al                                                                         


     bravais-lattice index     =            2
     lattice parameter (alat)  =       7.4305  a.u.
     unit-cell volume          =     102.5647 (a.u.)^3
     number of atoms/cell      =            1
     number of atomic types    =            1
     number of electrons       =        11.00
     number of Kohn-Sham states=           10
     kinetic-energy cutoff     =      50.0000  Ry
     charge density cutoff     =     500.0000  Ry
     Exchange-correlation= PBE
                           (   1   4   3   4   0   0   0)

     celldm(1)=   7.430522  celldm(2)=   0.000000  celldm(3)=   0.000000
     celldm(4)=   0.000000  celldm(5)=   0.000000  celldm(6)=   0.000000

     crystal axes: (cart. coord. in units of alat)
               a(1) = (  -0.500000   0.000000   0.500000 )  
               a(2) = (   0.000000   0.500000   0.500000 )  
               a(3) = (  -0.500000   0.500000   0.000000 )  

     reciprocal axes: (cart. coord. in units 2 pi/alat)
               b(1) = ( -1.000000 -1.000000  1.000000 )  
               b(2) = (  1.000000  1.000000  1.000000 )  
               b(3) = ( -1.000000  1.000000 -1.000000 )  


     PseudoPot. # 1 for Al read from file:
     /home/bonacc_m/Downloads/sg15_oncv_upf_2020-02-06/Al_ONCV_PBE-1.2.upf
     MD5 check sum: 2d9e7bc02555220d62fad08c3c4858e7
     Pseudo is Norm-conserving, Zval = 11.0
     Generated using ONCVPSP code by D. R. Hamann
     Using radial grid of  602 points,  4 beta functions with: 
                l(1) =   0
                l(2) =   0
                l(3) =   1
                l(4) =   1

     atomic species   valence    mass     pseudopotential
        Al            11.00    26.98154     Al( 1.00)

     48 Sym. Ops., with inversion, found



   Cartesian axes

     site n.     atom                  positions (alat units)
         1           Al  tau(   1) = (   0.0000000   0.0000000   0.0000000  )

     number of k points=   524  Gaussian smearing, width (Ry)=  0.0100

     Number of k-points >= 100: set verbosity='high' to print them.

     Dense  grid:    19579 G-vectors     FFT dimensions: (  40,  40,  40)

     Smooth grid:     4909 G-vectors     FFT dimensions: (  24,  24,  24)

     Estimated max dynamical RAM per process >       1.99 MB

     Estimated total dynamical RAM >      11.95 MB

     The potential is recalculated from file :
     ./tmp/_ph0/al.save/charge-density

     Starting wfcs are    0 atomic +   10 random wfcs

     Band Structure Calculation
     Davidson diagonalization with overlap

     ethr =  9.09E-11,  avg # of iterations = 15.7

     total cpu time spent up to now is       96.3 secs

     End of band structure calculation

     Number of k-points >= 100: set verbosity='high' to print the bands.

     the Fermi energy is    11.9829 ev

     Writing config to output data dir ./tmp/_ph0/al.save/

     al                                                                         

     bravais-lattice index     =            2
     lattice parameter (alat)  =       7.4305  a.u.
     unit-cell volume          =     102.5647 (a.u.)^3
     number of atoms/cell      =            1
     number of atomic types    =            1
     kinetic-energy cut-off    =      50.0000  Ry
     charge density cut-off    =     500.0000  Ry
     convergence threshold     =      1.0E-16
     beta                      =       0.7000
     number of iterations used =            4
     Exchange-correlation= PBE
                           (   1   4   3   4   0   0   0)


     celldm(1)=    7.43052  celldm(2)=    0.00000  celldm(3)=    0.00000
     celldm(4)=    0.00000  celldm(5)=    0.00000  celldm(6)=    0.00000

     crystal axes: (cart. coord. in units of alat)
               a(1) = ( -0.5000  0.0000  0.5000 )  
               a(2) = (  0.0000  0.5000  0.5000 )  
               a(3) = ( -0.5000  0.5000  0.0000 )  

     reciprocal axes: (cart. coord. in units 2 pi/alat)
               b(1) = ( -1.0000 -1.0000  1.0000 )  
               b(2) = (  1.0000  1.0000  1.0000 )  
               b(3) = ( -1.0000  1.0000 -1.0000 )  


     Atoms inside the unit cell: 

     Cartesian axes

     site n.  atom      mass           positions (alat units)
        1     Al  26.9815   tau(    1) = (    0.00000    0.00000    0.00000  )

     Computing dynamical matrix for 
                    q = (  -0.5000000  -1.0000000   0.0000000 )

      8 Sym.Ops. (no q -> -q+G )


     G cutoff =  699.2765  (   3263 G-vectors)     FFT grid: ( 40, 40, 40)
     G cutoff =  279.7106  (    818 G-vectors)  smooth grid: ( 24, 24, 24)

     number of k points=   524  Gaussian smearing, width (Ry)=  0.0100

     PseudoPot. # 1 for Al read from file:
     /home/bonacc_m/Downloads/sg15_oncv_upf_2020-02-06/Al_ONCV_PBE-1.2.upf
     MD5 check sum: 2d9e7bc02555220d62fad08c3c4858e7
     Pseudo is Norm-conserving, Zval = 11.0
     Generated using ONCVPSP code by D. R. Hamann
     Using radial grid of  602 points,  4 beta functions with: 
                l(1) =   0
                l(2) =   0
                l(3) =   1
                l(4) =   1

     Mode symmetry, D_2d (-42m) point group:


     Atomic displacements:
     There are    2 irreducible representations

     Representation     1      1 modes -  To be done

     Representation     2      2 modes -  To be done



     Alpha used in Ewald sum =   2.8000
     PHONON       :   7m12.71s CPU   7m40.08s WALL



     Representation #   1 mode #   1

     Self-consistent Calculation

      iter #   1 total cpu time :   461.5 secs   av.it.:   7.3
      thresh= 1.000E-02 alpha_mix =  0.700 |ddv_scf|^2 =  7.643E-05

      iter #   2 total cpu time :   463.0 secs   av.it.:   8.8
      thresh= 8.742E-04 alpha_mix =  0.700 |ddv_scf|^2 =  1.311E-05

      iter #   3 total cpu time :   464.4 secs   av.it.:   8.1
      thresh= 3.621E-04 alpha_mix =  0.700 |ddv_scf|^2 =  3.107E-08

      iter #   4 total cpu time :   465.8 secs   av.it.:   8.2
      thresh= 1.763E-05 alpha_mix =  0.700 |ddv_scf|^2 =  2.220E-09

      iter #   5 total cpu time :   467.1 secs   av.it.:   7.7
      thresh= 4.711E-06 alpha_mix =  0.700 |ddv_scf|^2 =  1.247E-12

      iter #   6 total cpu time :   468.5 secs   av.it.:   8.7
      thresh= 1.117E-07 alpha_mix =  0.700 |ddv_scf|^2 =  7.624E-15

      iter #   7 total cpu time :   470.0 secs   av.it.:   8.2
      thresh= 8.731E-09 alpha_mix =  0.700 |ddv_scf|^2 =  2.373E-16

      iter #   8 total cpu time :   471.4 secs   av.it.:   8.7
      thresh= 1.540E-09 alpha_mix =  0.700 |ddv_scf|^2 =  2.183E-19

     End of self-consistent calculation

     Convergence has been achieved 


     Representation #   2 modes #   2   3

     Self-consistent Calculation

      iter #   1 total cpu time :   474.2 secs   av.it.:   7.5
      thresh= 1.000E-02 alpha_mix =  0.700 |ddv_scf|^2 =  3.098E-05

      iter #   2 total cpu time :   477.3 secs   av.it.:   9.4
      thresh= 5.566E-04 alpha_mix =  0.700 |ddv_scf|^2 =  7.396E-06

      iter #   3 total cpu time :   480.3 secs   av.it.:   8.8
      thresh= 2.719E-04 alpha_mix =  0.700 |ddv_scf|^2 =  1.202E-08

      iter #   4 total cpu time :   483.3 secs   av.it.:   9.1
      thresh= 1.096E-05 alpha_mix =  0.700 |ddv_scf|^2 =  3.107E-10

      iter #   5 total cpu time :   486.1 secs   av.it.:   8.6
      thresh= 1.763E-06 alpha_mix =  0.700 |ddv_scf|^2 =  6.967E-13

      iter #   6 total cpu time :   489.2 secs   av.it.:   9.2
      thresh= 8.347E-08 alpha_mix =  0.700 |ddv_scf|^2 =  5.477E-15

      iter #   7 total cpu time :   492.2 secs   av.it.:   9.1
      thresh= 7.401E-09 alpha_mix =  0.700 |ddv_scf|^2 =  1.203E-16

      iter #   8 total cpu time :   495.1 secs   av.it.:   8.9
      thresh= 1.097E-09 alpha_mix =  0.700 |ddv_scf|^2 =  4.602E-20

     End of self-consistent calculation

     Convergence has been achieved 

     Number of q in the star =    6
     List of q in the star:
          1  -0.500000000  -1.000000000   0.000000000
          2   0.000000000   1.000000000   0.500000000
          3   0.000000000  -1.000000000  -0.500000000
          4   0.500000000   1.000000000   0.000000000
          5  -1.000000000  -0.500000000   0.000000000
          6   0.000000000  -0.500000000  -1.000000000

     Diagonalizing the dynamical matrix

     q = (   -0.500000000  -1.000000000   0.000000000 ) 

 **************************************************************************
     freq (    1) =       7.539894 [THz] =     251.503781 [cm-1]
     freq (    2) =       9.366552 [THz] =     312.434546 [cm-1]
     freq (    3) =       9.366552 [THz] =     312.434546 [cm-1]
 **************************************************************************

     Mode symmetry, D_2d (-42m) point group:

     freq (   1-   1) =        251.5  [cm-1]   --> B_2  X_3  W_2      
     freq (   2-   3) =        312.4  [cm-1]   --> E    X_5  W_3      

     init_run     :      0.22s CPU      0.23s WALL (       7 calls)
     electrons    :     92.33s CPU     95.71s WALL (       7 calls)

     Called by init_run:
     wfcinit      :      0.00s CPU      0.00s WALL (       7 calls)
     potinit      :      0.03s CPU      0.04s WALL (       7 calls)
     hinit0       :      0.05s CPU      0.05s WALL (       7 calls)

     Called by electrons:
     c_bands      :     92.31s CPU     95.69s WALL (       7 calls)
     v_of_rho     :      0.03s CPU      0.04s WALL (       8 calls)

     Called by c_bands:
     init_us_2    :      1.37s CPU      1.47s WALL (   87057 calls)
     init_us_2:cp :      1.30s CPU      1.39s WALL (   87057 calls)
     cegterg      :     86.85s CPU     89.95s WALL (    5599 calls)

     Called by *egterg:
     cdiaghg      :     20.77s CPU     21.51s WALL (   91626 calls)
     h_psi        :    314.96s CPU    335.49s WALL ( 1079192 calls)
     g_psi        :      0.32s CPU      0.34s WALL (   86190 calls)

     Called by h_psi:
     h_psi:calbec :     13.47s CPU     14.34s WALL ( 1079192 calls)
     vloc_psi     :    291.64s CPU    310.68s WALL ( 1079192 calls)
     add_vuspsi   :      6.76s CPU      7.23s WALL ( 1079192 calls)

     General routines
     calbec       :     24.02s CPU     25.68s WALL ( 2122611 calls)
     fft          :      0.66s CPU      0.71s WALL (    2679 calls)
     ffts         :      0.63s CPU      0.68s WALL (    9220 calls)
     fftw         :    315.41s CPU    336.07s WALL (10084788 calls)
     interpolate  :      0.09s CPU      0.12s WALL (     402 calls)
     davcio       :      3.66s CPU      4.19s WALL (  371167 calls)

     Parallel routines

     PHONON       :   7m45.43s CPU   8m15.18s WALL

     INITIALIZATION: 
     phq_setup    :      0.09s CPU      0.10s WALL (       8 calls)
     phq_init     :      1.14s CPU      1.22s WALL (       8 calls)

     phq_init     :      1.14s CPU      1.22s WALL (       8 calls)
     init_vloc    :      0.01s CPU      0.01s WALL (       8 calls)
     init_us_1    :      0.04s CPU      0.04s WALL (       8 calls)
     init_us_2    :      1.37s CPU      1.47s WALL (   87057 calls)

     DYNAMICAL MATRIX:
     dynmat0      :      0.62s CPU      0.67s WALL (       8 calls)
     phqscf       :    371.07s CPU    397.29s WALL (       8 calls)
     dynmatrix    :      0.00s CPU      0.00s WALL (       8 calls)

     phqscf       :    371.07s CPU    397.29s WALL (       8 calls)
     solve_linter :    369.98s CPU    396.11s WALL (      17 calls)
     drhodv       :      1.09s CPU      1.17s WALL (      17 calls)

     dynmat0      :      0.62s CPU      0.67s WALL (       8 calls)
     dynmat_us    :      0.62s CPU      0.67s WALL (       8 calls)
     d2ionq       :      0.00s CPU      0.00s WALL (       8 calls)

     dynmat_us    :      0.62s CPU      0.67s WALL (       8 calls)

     phqscf       :    371.07s CPU    397.29s WALL (       8 calls)
     solve_linter :    369.98s CPU    396.11s WALL (      17 calls)

     solve_linter :    369.98s CPU    396.11s WALL (      17 calls)
     dvqpsi_us    :      6.47s CPU      6.96s WALL (    8370 calls)
     sth_kernel   :    359.19s CPU    384.61s WALL (     143 calls)
     apply_dpot_b :     21.09s CPU     22.54s WALL (   63865 calls)
     ortho        :      2.37s CPU      2.54s WALL (   72235 calls)
     cgsolve      :    306.26s CPU    327.94s WALL (   72235 calls)
     incdrhoscf   :     23.45s CPU     25.00s WALL (   72235 calls)
     dv_of_drho   :      0.65s CPU      0.69s WALL (     193 calls)
     mix_pot      :      0.13s CPU      0.18s WALL (     143 calls)
     ef_shift     :      0.01s CPU      0.01s WALL (       7 calls)
     ef_shift_wfc :      0.00s CPU      0.00s WALL (       1 calls)
     localdos     :      0.04s CPU      0.05s WALL (       1 calls)
     psymdvscf    :      3.08s CPU      3.14s WALL (     143 calls)

     dvqpsi_us    :      6.47s CPU      6.96s WALL (    8370 calls)
     dvqpsi_us_on :      0.76s CPU      0.81s WALL (    8370 calls)

     cgsolve      :    306.26s CPU    327.94s WALL (   72235 calls)
     ch_psi       :    290.53s CPU    311.09s WALL (  981967 calls)

     ch_psi       :    290.53s CPU    311.09s WALL (  981967 calls)
     h_psi        :    314.96s CPU    335.49s WALL ( 1079192 calls)
     last         :     25.16s CPU     26.92s WALL (  981967 calls)

     h_psi        :    314.96s CPU    335.49s WALL ( 1079192 calls)
     add_vuspsi   :      6.76s CPU      7.23s WALL ( 1079192 calls)

     incdrhoscf   :     23.45s CPU     25.00s WALL (   72235 calls)


      General routines
     calbec       :     24.02s CPU     25.68s WALL ( 2122611 calls)
     fft          :      0.66s CPU      0.71s WALL (    2679 calls)
     ffts         :      0.63s CPU      0.68s WALL (    9220 calls)
     fftw         :    315.41s CPU    336.07s WALL (10084788 calls)
     davcio       :      3.66s CPU      4.19s WALL (  371167 calls)
     write_rec    :      0.05s CPU      0.07s WALL (     160 calls)


     PHONON       :   7m45.43s CPU   8m15.18s WALL


   This run was terminated on:  15:39:25   3Jun2024            

=------------------------------------------------------------------------------=
   JOB DONE.
=------------------------------------------------------------------------------=
