
     Program PHONON v.7.1 starts on  2May2024 at 17: 1:17 

     This program is part of the open-source Quantum ESPRESSO suite
     for quantum simulation of materials; please cite
         "P. Giannozzi et al., J. Phys.:Condens. Matter 21 395502 (2009);
         "P. Giannozzi et al., J. Phys.:Condens. Matter 29 465901 (2017);
         "P. Giannozzi et al., J. Chem. Phys. 152 154105 (2020);
          URL http://www.quantum-espresso.org", 
     in publications or presentations arising from this work. More details at
     http://www.quantum-espresso.org/quote

     Parallel version (MPI & OpenMP), running on       6 processor cores
     Number of MPI processes:                 6
     Threads/MPI process:                     1

     MPI processes distributed on     1 nodes
     R & G space division:  proc/nbgrp/npool/nimage =       6
     222133 MiB available memory on the printing compute node when the environment starts

     Reading input from al.ph.in

     Reading xml data from directory:

     ./tmp/al.save/

     IMPORTANT: XC functional enforced from input :
     Exchange-correlation= PZ
                           (   1   1   0   0   0   0   0)
     Any further DFT definition will be discarded
     Please, verify this is what you really want


     Parallelization info
     --------------------
     sticks:   dense  smooth     PW     G-vecs:    dense   smooth      PW
     Min         167      66     21                 3478      867     160
     Max         168      67     22                 3481      869     163
     Sum        1003     397    127                20875     5209     965

     Using Slab Decomposition

     Reading collected, re-writing distributed wavefunctions


     Dynamical matrices for ( 4, 4, 4)  uniform grid of q-points
     (   8 q-points):
       N         xq(1)         xq(2)         xq(3) 
       1   0.000000000   0.000000000   0.000000000
       2  -0.250000000   0.250000000  -0.250000000
       3   0.500000000  -0.500000000   0.500000000
       4   0.000000000   0.500000000   0.000000000
       5   0.750000000  -0.250000000   0.750000000
       6   0.500000000   0.000000000   0.500000000
       7   0.000000000  -1.000000000   0.000000000
       8  -0.500000000  -1.000000000   0.000000000

     Calculation of q =    0.0000000   0.0000000   0.0000000

     al                                                                         

     bravais-lattice index     =            2
     lattice parameter (alat)  =       7.6307  a.u.
     unit-cell volume          =     111.0815 (a.u.)^3
     number of atoms/cell      =            1
     number of atomic types    =            1
     kinetic-energy cut-off    =      50.0000  Ry
     charge density cut-off    =     500.0000  Ry
     convergence threshold     =      1.0E-13
     beta                      =       0.7000
     number of iterations used =            4
     Exchange-correlation= PZ
                           (   1   1   0   0   0   0   0)


     celldm(1)=    7.63075  celldm(2)=    0.00000  celldm(3)=    0.00000
     celldm(4)=    0.00000  celldm(5)=    0.00000  celldm(6)=    0.00000

     crystal axes: (cart. coord. in units of alat)
               a(1) = ( -0.5000  0.0000  0.5000 )  
               a(2) = (  0.0000  0.5000  0.5000 )  
               a(3) = ( -0.5000  0.5000  0.0000 )  

     reciprocal axes: (cart. coord. in units 2 pi/alat)
               b(1) = ( -1.0000 -1.0000  1.0000 )  
               b(2) = (  1.0000  1.0000  1.0000 )  
               b(3) = ( -1.0000  1.0000 -1.0000 )  


     Atoms inside the unit cell: 

     Cartesian axes

     site n.  atom      mass           positions (alat units)
        1     Al  26.9815   tau(    1) = (    0.00000    0.00000    0.00000  )

     Computing dynamical matrix for 
                    q = (   0.0000000   0.0000000   0.0000000 )

     49 Sym.Ops. (with q -> -q+G )


     G cutoff =  737.4706  (   3480 G-vectors)     FFT grid: ( 40, 40, 40)
     G cutoff =  294.9882  (    868 G-vectors)  smooth grid: ( 25, 25, 25)

     number of k points=    29  Gaussian smearing, width (Ry)=  0.0100

     PseudoPot. # 1 for Al read from file:
     /home/bonacc_m/Documents/phonons/material-for-ljubljana-qe-summer-school/pseudo/Al.pz-vbc.UPF
     MD5 check sum: 69dcd8cd7cc1bedf536afd524f174f6a
     Pseudo is Norm-conserving, Zval =  3.0
     Generated by new atomic code, or converted to UPF format
     Using radial grid of  171 points,  2 beta functions with: 
                l(1) =   0
                l(2) =   1

     Mode symmetry, O_h (m-3m)  point group:


     Atomic displacements:
     There are    1 irreducible representations

     Representation     1      3 modes -  To be done



     Alpha used in Ewald sum =   2.8000
     PHONON       :      0.14s CPU      0.15s WALL



     Representation #   1 modes #   1   2   3

     Self-consistent Calculation

     Pert. #  1: Fermi energy shift (Ry) =     1.5165E-24    -3.5265E-38
     Pert. #  2: Fermi energy shift (Ry) =    -1.1201E-24     7.8366E-39
     Pert. #  3: Fermi energy shift (Ry) =     4.8252E-25    -4.3101E-38

      iter #   1 total cpu time :     0.7 secs   av.it.:   3.6
      thresh= 1.000E-02 alpha_mix =  0.700 |ddv_scf|^2 =  7.381E-10

     Pert. #  1: Fermi energy shift (Ry) =    -1.3786E-25    -2.8699E-40
     Pert. #  2: Fermi energy shift (Ry) =     1.8095E-25    -2.2959E-41
     Pert. #  3: Fermi energy shift (Ry) =     1.3786E-25     3.1377E-40

      iter #   2 total cpu time :     1.3 secs   av.it.:   6.8
      thresh= 2.717E-06 alpha_mix =  0.700 |ddv_scf|^2 =  7.806E-11

     Pert. #  1: Fermi energy shift (Ry) =     7.9271E-25    -1.8893E-40
     Pert. #  2: Fermi energy shift (Ry) =    -6.5485E-25    -3.0612E-41
     Pert. #  3: Fermi energy shift (Ry) =     1.1374E-24     1.5306E-41

      iter #   3 total cpu time :     1.9 secs   av.it.:   6.5
      thresh= 8.835E-07 alpha_mix =  0.700 |ddv_scf|^2 =  5.779E-15

     End of self-consistent calculation

     Convergence has been achieved 

     Number of q in the star =    1
     List of q in the star:
          1   0.000000000   0.000000000   0.000000000

     Diagonalizing the dynamical matrix

     q = (    0.000000000   0.000000000   0.000000000 ) 

 **************************************************************************
     freq (    1) =       0.167693 [THz] =       5.593635 [cm-1]
     freq (    2) =       0.167693 [THz] =       5.593635 [cm-1]
     freq (    3) =       0.167693 [THz] =       5.593635 [cm-1]
 **************************************************************************

     Mode symmetry, O_h (m-3m)  point group:

     freq (   1-   3) =          5.6  [cm-1]   --> T_1u G_15  G_4- I  

     Calculation of q =   -0.2500000   0.2500000  -0.2500000
     Subspace diagonalization in iterative solution of the eigenvalue problem:
     a serial algorithm will be used


     Parallelization info
     --------------------
     sticks:   dense  smooth     PW     G-vecs:    dense   smooth      PW
     Min         167      66     24                 3478      867     189
     Max         168      67     26                 3481      869     190
     Sum        1003     397    151                20875     5209    1139

     Using Slab Decomposition


     Title: 
     al                                                                         


     bravais-lattice index     =            2
     lattice parameter (alat)  =       7.6307  a.u.
     unit-cell volume          =     111.0815 (a.u.)^3
     number of atoms/cell      =            1
     number of atomic types    =            1
     number of electrons       =         3.00
     number of Kohn-Sham states=            6
     kinetic-energy cutoff     =      50.0000  Ry
     charge density cutoff     =     500.0000  Ry
     Exchange-correlation= PZ
                           (   1   1   0   0   0   0   0)

     celldm(1)=   7.630750  celldm(2)=   0.000000  celldm(3)=   0.000000
     celldm(4)=   0.000000  celldm(5)=   0.000000  celldm(6)=   0.000000

     crystal axes: (cart. coord. in units of alat)
               a(1) = (  -0.500000   0.000000   0.500000 )  
               a(2) = (   0.000000   0.500000   0.500000 )  
               a(3) = (  -0.500000   0.500000   0.000000 )  

     reciprocal axes: (cart. coord. in units 2 pi/alat)
               b(1) = ( -1.000000 -1.000000  1.000000 )  
               b(2) = (  1.000000  1.000000  1.000000 )  
               b(3) = ( -1.000000  1.000000 -1.000000 )  


     PseudoPot. # 1 for Al read from file:
     /home/bonacc_m/Documents/phonons/material-for-ljubljana-qe-summer-school/pseudo/Al.pz-vbc.UPF
     MD5 check sum: 69dcd8cd7cc1bedf536afd524f174f6a
     Pseudo is Norm-conserving, Zval =  3.0
     Generated by new atomic code, or converted to UPF format
     Using radial grid of  171 points,  2 beta functions with: 
                l(1) =   0
                l(2) =   1

     atomic species   valence    mass     pseudopotential
        Al             3.00    26.98154     Al( 1.00)

     48 Sym. Ops., with inversion, found



   Cartesian axes

     site n.     atom                  positions (alat units)
         1           Al  tau(   1) = (   0.0000000   0.0000000   0.0000000  )

     number of k points=   240  Gaussian smearing, width (Ry)=  0.0100

     Number of k-points >= 100: set verbosity='high' to print them.

     Dense  grid:    20875 G-vectors     FFT dimensions: (  40,  40,  40)

     Smooth grid:     5209 G-vectors     FFT dimensions: (  25,  25,  25)

     Estimated max dynamical RAM per process >       1.51 MB

     Estimated total dynamical RAM >       9.03 MB

     The potential is recalculated from file :
     ./tmp/_ph0/al.save/charge-density

     Starting wfcs are    4 atomic +    2 random wfcs

     Band Structure Calculation
     Davidson diagonalization with overlap

     ethr =  3.33E-10,  avg # of iterations = 15.7

     total cpu time spent up to now is        4.5 secs

     End of band structure calculation

     Number of k-points >= 100: set verbosity='high' to print the bands.

     the Fermi energy is     7.7758 ev

     Writing config to output data dir ./tmp/_ph0/al.save/

     al                                                                         

     bravais-lattice index     =            2
     lattice parameter (alat)  =       7.6307  a.u.
     unit-cell volume          =     111.0815 (a.u.)^3
     number of atoms/cell      =            1
     number of atomic types    =            1
     kinetic-energy cut-off    =      50.0000  Ry
     charge density cut-off    =     500.0000  Ry
     convergence threshold     =      1.0E-13
     beta                      =       0.7000
     number of iterations used =            4
     Exchange-correlation= PZ
                           (   1   1   0   0   0   0   0)


     celldm(1)=    7.63075  celldm(2)=    0.00000  celldm(3)=    0.00000
     celldm(4)=    0.00000  celldm(5)=    0.00000  celldm(6)=    0.00000

     crystal axes: (cart. coord. in units of alat)
               a(1) = ( -0.5000  0.0000  0.5000 )  
               a(2) = (  0.0000  0.5000  0.5000 )  
               a(3) = ( -0.5000  0.5000  0.0000 )  

     reciprocal axes: (cart. coord. in units 2 pi/alat)
               b(1) = ( -1.0000 -1.0000  1.0000 )  
               b(2) = (  1.0000  1.0000  1.0000 )  
               b(3) = ( -1.0000  1.0000 -1.0000 )  


     Atoms inside the unit cell: 

     Cartesian axes

     site n.  atom      mass           positions (alat units)
        1     Al  26.9815   tau(    1) = (    0.00000    0.00000    0.00000  )

     Computing dynamical matrix for 
                    q = (  -0.2500000   0.2500000  -0.2500000 )

      6 Sym.Ops. (no q -> -q+G )


     G cutoff =  737.4706  (   3479 G-vectors)     FFT grid: ( 40, 40, 40)
     G cutoff =  294.9882  (    868 G-vectors)  smooth grid: ( 25, 25, 25)

     number of k points=   240  Gaussian smearing, width (Ry)=  0.0100

     PseudoPot. # 1 for Al read from file:
     /home/bonacc_m/Documents/phonons/material-for-ljubljana-qe-summer-school/pseudo/Al.pz-vbc.UPF
     MD5 check sum: 69dcd8cd7cc1bedf536afd524f174f6a
     Pseudo is Norm-conserving, Zval =  3.0
     Generated by new atomic code, or converted to UPF format
     Using radial grid of  171 points,  2 beta functions with: 
                l(1) =   0
                l(2) =   1

     Mode symmetry, C_3v (3m)   point group:


     Atomic displacements:
     There are    2 irreducible representations

     Representation     1      1 modes -  To be done

     Representation     2      2 modes -  To be done



     Alpha used in Ewald sum =   2.8000
     PHONON       :      6.25s CPU      6.50s WALL



     Representation #   1 mode #   1

     Self-consistent Calculation

      iter #   1 total cpu time :     6.9 secs   av.it.:   4.4
      thresh= 1.000E-02 alpha_mix =  0.700 |ddv_scf|^2 =  1.010E-03

      iter #   2 total cpu time :     7.3 secs   av.it.:   5.7
      thresh= 3.177E-03 alpha_mix =  0.700 |ddv_scf|^2 =  4.163E-02

      iter #   3 total cpu time :     7.6 secs   av.it.:   4.8
      thresh= 1.000E-02 alpha_mix =  0.700 |ddv_scf|^2 =  2.993E-08

      iter #   4 total cpu time :     8.0 secs   av.it.:   6.4
      thresh= 1.730E-05 alpha_mix =  0.700 |ddv_scf|^2 =  1.421E-10

      iter #   5 total cpu time :     8.5 secs   av.it.:   6.5
      thresh= 1.192E-06 alpha_mix =  0.700 |ddv_scf|^2 =  1.061E-11

      iter #   6 total cpu time :     8.9 secs   av.it.:   6.4
      thresh= 3.257E-07 alpha_mix =  0.700 |ddv_scf|^2 =  5.359E-11

      iter #   7 total cpu time :     9.2 secs   av.it.:   4.5
      thresh= 7.320E-07 alpha_mix =  0.700 |ddv_scf|^2 =  2.108E-13

      iter #   8 total cpu time :     9.5 secs   av.it.:   5.4
      thresh= 4.591E-08 alpha_mix =  0.700 |ddv_scf|^2 =  4.111E-16

     End of self-consistent calculation

     Convergence has been achieved 


     Representation #   2 modes #   2   3

     Self-consistent Calculation

      iter #   1 total cpu time :    10.3 secs   av.it.:   3.6
      thresh= 1.000E-02 alpha_mix =  0.700 |ddv_scf|^2 =  1.922E-09

      iter #   2 total cpu time :    11.2 secs   av.it.:   7.0
      thresh= 4.384E-06 alpha_mix =  0.700 |ddv_scf|^2 =  1.816E-10

      iter #   3 total cpu time :    12.0 secs   av.it.:   6.8
      thresh= 1.348E-06 alpha_mix =  0.700 |ddv_scf|^2 =  6.364E-13

      iter #   4 total cpu time :    12.8 secs   av.it.:   7.2
      thresh= 7.977E-08 alpha_mix =  0.700 |ddv_scf|^2 =  7.235E-16

     End of self-consistent calculation

     Convergence has been achieved 

     Number of q in the star =    8
     List of q in the star:
          1  -0.250000000   0.250000000  -0.250000000
          2   0.250000000  -0.250000000  -0.250000000
          3   0.250000000  -0.250000000   0.250000000
          4   0.250000000   0.250000000   0.250000000
          5  -0.250000000  -0.250000000  -0.250000000
          6  -0.250000000  -0.250000000   0.250000000
          7  -0.250000000   0.250000000   0.250000000
          8   0.250000000   0.250000000  -0.250000000

     Diagonalizing the dynamical matrix

     q = (   -0.250000000   0.250000000  -0.250000000 ) 

 **************************************************************************
     freq (    1) =       3.289532 [THz] =     109.726992 [cm-1]
     freq (    2) =       3.289532 [THz] =     109.726992 [cm-1]
     freq (    3) =       5.836936 [THz] =     194.699226 [cm-1]
 **************************************************************************

     Mode symmetry, C_3v (3m)   point group:

     freq (   1-   2) =        109.7  [cm-1]   --> E    L_3           
     freq (   3-   3) =        194.7  [cm-1]   --> A_1  L_1           

     Calculation of q =    0.5000000  -0.5000000   0.5000000

     Parallelization info
     --------------------
     sticks:   dense  smooth     PW     G-vecs:    dense   smooth      PW
     Min         167      66     25                 3478      867     206
     Max         168      67     26                 3481      869     209
     Sum        1003     397    151                20875     5209    1243

     Using Slab Decomposition


     Title: 
     al                                                                         


     bravais-lattice index     =            2
     lattice parameter (alat)  =       7.6307  a.u.
     unit-cell volume          =     111.0815 (a.u.)^3
     number of atoms/cell      =            1
     number of atomic types    =            1
     number of electrons       =         3.00
     number of Kohn-Sham states=            6
     kinetic-energy cutoff     =      50.0000  Ry
     charge density cutoff     =     500.0000  Ry
     Exchange-correlation= PZ
                           (   1   1   0   0   0   0   0)

     celldm(1)=   7.630750  celldm(2)=   0.000000  celldm(3)=   0.000000
     celldm(4)=   0.000000  celldm(5)=   0.000000  celldm(6)=   0.000000

     crystal axes: (cart. coord. in units of alat)
               a(1) = (  -0.500000   0.000000   0.500000 )  
               a(2) = (   0.000000   0.500000   0.500000 )  
               a(3) = (  -0.500000   0.500000   0.000000 )  

     reciprocal axes: (cart. coord. in units 2 pi/alat)
               b(1) = ( -1.000000 -1.000000  1.000000 )  
               b(2) = (  1.000000  1.000000  1.000000 )  
               b(3) = ( -1.000000  1.000000 -1.000000 )  


     PseudoPot. # 1 for Al read from file:
     /home/bonacc_m/Documents/phonons/material-for-ljubljana-qe-summer-school/pseudo/Al.pz-vbc.UPF
     MD5 check sum: 69dcd8cd7cc1bedf536afd524f174f6a
     Pseudo is Norm-conserving, Zval =  3.0
     Generated by new atomic code, or converted to UPF format
     Using radial grid of  171 points,  2 beta functions with: 
                l(1) =   0
                l(2) =   1

     atomic species   valence    mass     pseudopotential
        Al             3.00    26.98154     Al( 1.00)

     48 Sym. Ops., with inversion, found



   Cartesian axes

     site n.     atom                  positions (alat units)
         1           Al  tau(   1) = (   0.0000000   0.0000000   0.0000000  )

     number of k points=   130  Gaussian smearing, width (Ry)=  0.0100

     Number of k-points >= 100: set verbosity='high' to print them.

     Dense  grid:    20875 G-vectors     FFT dimensions: (  40,  40,  40)

     Smooth grid:     5209 G-vectors     FFT dimensions: (  25,  25,  25)

     Estimated max dynamical RAM per process >       1.51 MB

     Estimated total dynamical RAM >       9.05 MB

     The potential is recalculated from file :
     ./tmp/_ph0/al.save/charge-density

     Starting wfcs are    4 atomic +    2 random wfcs

     Band Structure Calculation
     Davidson diagonalization with overlap

     ethr =  3.33E-10,  avg # of iterations = 15.8

     total cpu time spent up to now is        7.1 secs

     End of band structure calculation

     Number of k-points >= 100: set verbosity='high' to print the bands.

     the Fermi energy is     7.7758 ev

     Writing config to output data dir ./tmp/_ph0/al.save/

     al                                                                         

     bravais-lattice index     =            2
     lattice parameter (alat)  =       7.6307  a.u.
     unit-cell volume          =     111.0815 (a.u.)^3
     number of atoms/cell      =            1
     number of atomic types    =            1
     kinetic-energy cut-off    =      50.0000  Ry
     charge density cut-off    =     500.0000  Ry
     convergence threshold     =      1.0E-13
     beta                      =       0.7000
     number of iterations used =            4
     Exchange-correlation= PZ
                           (   1   1   0   0   0   0   0)


     celldm(1)=    7.63075  celldm(2)=    0.00000  celldm(3)=    0.00000
     celldm(4)=    0.00000  celldm(5)=    0.00000  celldm(6)=    0.00000

     crystal axes: (cart. coord. in units of alat)
               a(1) = ( -0.5000  0.0000  0.5000 )  
               a(2) = (  0.0000  0.5000  0.5000 )  
               a(3) = ( -0.5000  0.5000  0.0000 )  

     reciprocal axes: (cart. coord. in units 2 pi/alat)
               b(1) = ( -1.0000 -1.0000  1.0000 )  
               b(2) = (  1.0000  1.0000  1.0000 )  
               b(3) = ( -1.0000  1.0000 -1.0000 )  


     Atoms inside the unit cell: 

     Cartesian axes

     site n.  atom      mass           positions (alat units)
        1     Al  26.9815   tau(    1) = (    0.00000    0.00000    0.00000  )

     Computing dynamical matrix for 
                    q = (   0.5000000  -0.5000000   0.5000000 )

     13 Sym.Ops. (with q -> -q+G )


     G cutoff =  737.4706  (   3479 G-vectors)     FFT grid: ( 40, 40, 40)
     G cutoff =  294.9882  (    868 G-vectors)  smooth grid: ( 25, 25, 25)

     number of k points=   130  Gaussian smearing, width (Ry)=  0.0100

     PseudoPot. # 1 for Al read from file:
     /home/bonacc_m/Documents/phonons/material-for-ljubljana-qe-summer-school/pseudo/Al.pz-vbc.UPF
     MD5 check sum: 69dcd8cd7cc1bedf536afd524f174f6a
     Pseudo is Norm-conserving, Zval =  3.0
     Generated by new atomic code, or converted to UPF format
     Using radial grid of  171 points,  2 beta functions with: 
                l(1) =   0
                l(2) =   1

     Mode symmetry, D_3d (-3m)  point group:


     Atomic displacements:
     There are    2 irreducible representations

     Representation     1      1 modes -  To be done

     Representation     2      2 modes -  To be done



     Alpha used in Ewald sum =   2.8000
     PHONON       :     14.66s CPU     15.40s WALL



     Representation #   1 mode #   1

     Self-consistent Calculation

      iter #   1 total cpu time :    15.7 secs   av.it.:   4.6
      thresh= 1.000E-02 alpha_mix =  0.700 |ddv_scf|^2 =  1.245E-05

      iter #   2 total cpu time :    15.9 secs   av.it.:   6.8
      thresh= 3.528E-04 alpha_mix =  0.700 |ddv_scf|^2 =  1.488E-05

      iter #   3 total cpu time :    16.2 secs   av.it.:   6.1
      thresh= 3.858E-04 alpha_mix =  0.700 |ddv_scf|^2 =  3.497E-10

      iter #   4 total cpu time :    16.4 secs   av.it.:   6.3
      thresh= 1.870E-06 alpha_mix =  0.700 |ddv_scf|^2 =  1.668E-11

      iter #   5 total cpu time :    16.7 secs   av.it.:   6.3
      thresh= 4.084E-07 alpha_mix =  0.700 |ddv_scf|^2 =  1.442E-15

     End of self-consistent calculation

     Convergence has been achieved 


     Representation #   2 modes #   2   3

     Self-consistent Calculation

      iter #   1 total cpu time :    17.1 secs   av.it.:   3.6
      thresh= 1.000E-02 alpha_mix =  0.700 |ddv_scf|^2 =  2.146E-09

      iter #   2 total cpu time :    17.7 secs   av.it.:   7.1
      thresh= 4.633E-06 alpha_mix =  0.700 |ddv_scf|^2 =  1.864E-10

      iter #   3 total cpu time :    18.2 secs   av.it.:   6.8
      thresh= 1.365E-06 alpha_mix =  0.700 |ddv_scf|^2 =  1.250E-12

      iter #   4 total cpu time :    18.7 secs   av.it.:   7.2
      thresh= 1.118E-07 alpha_mix =  0.700 |ddv_scf|^2 =  1.232E-15

     End of self-consistent calculation

     Convergence has been achieved 

     Number of q in the star =    4
     List of q in the star:
          1   0.500000000  -0.500000000   0.500000000
          2   0.500000000   0.500000000   0.500000000
          3  -0.500000000   0.500000000   0.500000000
          4   0.500000000   0.500000000  -0.500000000

     Diagonalizing the dynamical matrix

     q = (    0.500000000  -0.500000000   0.500000000 ) 

 **************************************************************************
     freq (    1) =       4.057677 [THz] =     135.349536 [cm-1]
     freq (    2) =       4.057677 [THz] =     135.349536 [cm-1]
     freq (    3) =       8.858378 [THz] =     295.483695 [cm-1]
 **************************************************************************

     Mode symmetry, D_3d (-3m)  point group:

     freq (   1-   2) =        135.3  [cm-1]   --> E_u  L_3'          
     freq (   3-   3) =        295.5  [cm-1]   --> A_2u L_2'          

     Calculation of q =    0.0000000   0.5000000   0.0000000

     Parallelization info
     --------------------
     sticks:   dense  smooth     PW     G-vecs:    dense   smooth      PW
     Min         167      66     24                 3478      867     189
     Max         168      67     26                 3481      869     190
     Sum        1003     397    151                20875     5209    1139

     Using Slab Decomposition


     Title: 
     al                                                                         


     bravais-lattice index     =            2
     lattice parameter (alat)  =       7.6307  a.u.
     unit-cell volume          =     111.0815 (a.u.)^3
     number of atoms/cell      =            1
     number of atomic types    =            1
     number of electrons       =         3.00
     number of Kohn-Sham states=            6
     kinetic-energy cutoff     =      50.0000  Ry
     charge density cutoff     =     500.0000  Ry
     Exchange-correlation= PZ
                           (   1   1   0   0   0   0   0)

     celldm(1)=   7.630750  celldm(2)=   0.000000  celldm(3)=   0.000000
     celldm(4)=   0.000000  celldm(5)=   0.000000  celldm(6)=   0.000000

     crystal axes: (cart. coord. in units of alat)
               a(1) = (  -0.500000   0.000000   0.500000 )  
               a(2) = (   0.000000   0.500000   0.500000 )  
               a(3) = (  -0.500000   0.500000   0.000000 )  

     reciprocal axes: (cart. coord. in units 2 pi/alat)
               b(1) = ( -1.000000 -1.000000  1.000000 )  
               b(2) = (  1.000000  1.000000  1.000000 )  
               b(3) = ( -1.000000  1.000000 -1.000000 )  


     PseudoPot. # 1 for Al read from file:
     /home/bonacc_m/Documents/phonons/material-for-ljubljana-qe-summer-school/pseudo/Al.pz-vbc.UPF
     MD5 check sum: 69dcd8cd7cc1bedf536afd524f174f6a
     Pseudo is Norm-conserving, Zval =  3.0
     Generated by new atomic code, or converted to UPF format
     Using radial grid of  171 points,  2 beta functions with: 
                l(1) =   0
                l(2) =   1

     atomic species   valence    mass     pseudopotential
        Al             3.00    26.98154     Al( 1.00)

     48 Sym. Ops., with inversion, found



   Cartesian axes

     site n.     atom                  positions (alat units)
         1           Al  tau(   1) = (   0.0000000   0.0000000   0.0000000  )

     number of k points=   200  Gaussian smearing, width (Ry)=  0.0100

     Number of k-points >= 100: set verbosity='high' to print them.

     Dense  grid:    20875 G-vectors     FFT dimensions: (  40,  40,  40)

     Smooth grid:     5209 G-vectors     FFT dimensions: (  25,  25,  25)

     Estimated max dynamical RAM per process >       1.51 MB

     Estimated total dynamical RAM >       9.04 MB

     The potential is recalculated from file :
     ./tmp/_ph0/al.save/charge-density

     Starting wfcs are    4 atomic +    2 random wfcs

     Band Structure Calculation
     Davidson diagonalization with overlap

     ethr =  3.33E-10,  avg # of iterations = 15.4

     total cpu time spent up to now is       10.8 secs

     End of band structure calculation

     Number of k-points >= 100: set verbosity='high' to print the bands.

     the Fermi energy is     7.7758 ev

     Writing config to output data dir ./tmp/_ph0/al.save/

     al                                                                         

     bravais-lattice index     =            2
     lattice parameter (alat)  =       7.6307  a.u.
     unit-cell volume          =     111.0815 (a.u.)^3
     number of atoms/cell      =            1
     number of atomic types    =            1
     kinetic-energy cut-off    =      50.0000  Ry
     charge density cut-off    =     500.0000  Ry
     convergence threshold     =      1.0E-13
     beta                      =       0.7000
     number of iterations used =            4
     Exchange-correlation= PZ
                           (   1   1   0   0   0   0   0)


     celldm(1)=    7.63075  celldm(2)=    0.00000  celldm(3)=    0.00000
     celldm(4)=    0.00000  celldm(5)=    0.00000  celldm(6)=    0.00000

     crystal axes: (cart. coord. in units of alat)
               a(1) = ( -0.5000  0.0000  0.5000 )  
               a(2) = (  0.0000  0.5000  0.5000 )  
               a(3) = ( -0.5000  0.5000  0.0000 )  

     reciprocal axes: (cart. coord. in units 2 pi/alat)
               b(1) = ( -1.0000 -1.0000  1.0000 )  
               b(2) = (  1.0000  1.0000  1.0000 )  
               b(3) = ( -1.0000  1.0000 -1.0000 )  


     Atoms inside the unit cell: 

     Cartesian axes

     site n.  atom      mass           positions (alat units)
        1     Al  26.9815   tau(    1) = (    0.00000    0.00000    0.00000  )

     Computing dynamical matrix for 
                    q = (   0.0000000   0.5000000   0.0000000 )

      8 Sym.Ops. (no q -> -q+G )


     G cutoff =  737.4706  (   3479 G-vectors)     FFT grid: ( 40, 40, 40)
     G cutoff =  294.9882  (    868 G-vectors)  smooth grid: ( 25, 25, 25)

     number of k points=   200  Gaussian smearing, width (Ry)=  0.0100

     PseudoPot. # 1 for Al read from file:
     /home/bonacc_m/Documents/phonons/material-for-ljubljana-qe-summer-school/pseudo/Al.pz-vbc.UPF
     MD5 check sum: 69dcd8cd7cc1bedf536afd524f174f6a
     Pseudo is Norm-conserving, Zval =  3.0
     Generated by new atomic code, or converted to UPF format
     Using radial grid of  171 points,  2 beta functions with: 
                l(1) =   0
                l(2) =   1

     Mode symmetry, C_4v (4mm)  point group:


     Atomic displacements:
     There are    2 irreducible representations

     Representation     1      1 modes -  To be done

     Representation     2      2 modes -  To be done



     Alpha used in Ewald sum =   2.8000
     PHONON       :     21.42s CPU     22.50s WALL



     Representation #   1 mode #   1

     Self-consistent Calculation

      iter #   1 total cpu time :    22.9 secs   av.it.:   4.1
      thresh= 1.000E-02 alpha_mix =  0.700 |ddv_scf|^2 =  3.485E-04

      iter #   2 total cpu time :    23.2 secs   av.it.:   5.6
      thresh= 1.867E-03 alpha_mix =  0.700 |ddv_scf|^2 =  6.734E-03

      iter #   3 total cpu time :    23.5 secs   av.it.:   4.5
      thresh= 8.206E-03 alpha_mix =  0.700 |ddv_scf|^2 =  3.128E-09

      iter #   4 total cpu time :    23.8 secs   av.it.:   6.5
      thresh= 5.593E-06 alpha_mix =  0.700 |ddv_scf|^2 =  6.012E-11

      iter #   5 total cpu time :    24.2 secs   av.it.:   6.3
      thresh= 7.754E-07 alpha_mix =  0.700 |ddv_scf|^2 =  2.576E-14

     End of self-consistent calculation

     Convergence has been achieved 


     Representation #   2 modes #   2   3

     Self-consistent Calculation

      iter #   1 total cpu time :    24.8 secs   av.it.:   3.8
      thresh= 1.000E-02 alpha_mix =  0.700 |ddv_scf|^2 =  5.096E-09

      iter #   2 total cpu time :    25.6 secs   av.it.:   7.3
      thresh= 7.139E-06 alpha_mix =  0.700 |ddv_scf|^2 =  1.821E-10

      iter #   3 total cpu time :    26.4 secs   av.it.:   6.8
      thresh= 1.349E-06 alpha_mix =  0.700 |ddv_scf|^2 =  1.044E-11

      iter #   4 total cpu time :    27.1 secs   av.it.:   6.7
      thresh= 3.231E-07 alpha_mix =  0.700 |ddv_scf|^2 =  9.048E-16

     End of self-consistent calculation

     Convergence has been achieved 

     Number of q in the star =    6
     List of q in the star:
          1   0.000000000   0.500000000   0.000000000
          2   0.000000000  -0.500000000   0.000000000
          3   0.500000000   0.000000000   0.000000000
          4   0.000000000   0.000000000   0.500000000
          5   0.000000000   0.000000000  -0.500000000
          6  -0.500000000   0.000000000   0.000000000

     Diagonalizing the dynamical matrix

     q = (    0.000000000   0.500000000   0.000000000 ) 

 **************************************************************************
     freq (    1) =       3.890110 [THz] =     129.760098 [cm-1]
     freq (    2) =       3.890110 [THz] =     129.760098 [cm-1]
     freq (    3) =       6.743870 [THz] =     224.951295 [cm-1]
 **************************************************************************

     Mode symmetry, C_4v (4mm)  point group:

     freq (   1-   2) =        129.8  [cm-1]   --> E    G_5 D_5       
     freq (   3-   3) =        225.0  [cm-1]   --> A_1  G_1 D_1       

     Calculation of q =    0.7500000  -0.2500000   0.7500000

     Parallelization info
     --------------------
     sticks:   dense  smooth     PW     G-vecs:    dense   smooth      PW
     Min         167      66     26                 3478      867     226
     Max         168      67     28                 3481      869     228
     Sum        1003     397    163                20875     5209    1363

     Using Slab Decomposition


     Title: 
     al                                                                         


     bravais-lattice index     =            2
     lattice parameter (alat)  =       7.6307  a.u.
     unit-cell volume          =     111.0815 (a.u.)^3
     number of atoms/cell      =            1
     number of atomic types    =            1
     number of electrons       =         3.00
     number of Kohn-Sham states=            6
     kinetic-energy cutoff     =      50.0000  Ry
     charge density cutoff     =     500.0000  Ry
     Exchange-correlation= PZ
                           (   1   1   0   0   0   0   0)

     celldm(1)=   7.630750  celldm(2)=   0.000000  celldm(3)=   0.000000
     celldm(4)=   0.000000  celldm(5)=   0.000000  celldm(6)=   0.000000

     crystal axes: (cart. coord. in units of alat)
               a(1) = (  -0.500000   0.000000   0.500000 )  
               a(2) = (   0.000000   0.500000   0.500000 )  
               a(3) = (  -0.500000   0.500000   0.000000 )  

     reciprocal axes: (cart. coord. in units 2 pi/alat)
               b(1) = ( -1.000000 -1.000000  1.000000 )  
               b(2) = (  1.000000  1.000000  1.000000 )  
               b(3) = ( -1.000000  1.000000 -1.000000 )  


     PseudoPot. # 1 for Al read from file:
     /home/bonacc_m/Documents/phonons/material-for-ljubljana-qe-summer-school/pseudo/Al.pz-vbc.UPF
     MD5 check sum: 69dcd8cd7cc1bedf536afd524f174f6a
     Pseudo is Norm-conserving, Zval =  3.0
     Generated by new atomic code, or converted to UPF format
     Using radial grid of  171 points,  2 beta functions with: 
                l(1) =   0
                l(2) =   1

     atomic species   valence    mass     pseudopotential
        Al             3.00    26.98154     Al( 1.00)

     48 Sym. Ops., with inversion, found



   Cartesian axes

     site n.     atom                  positions (alat units)
         1           Al  tau(   1) = (   0.0000000   0.0000000   0.0000000  )

     number of k points=   576  Gaussian smearing, width (Ry)=  0.0100

     Number of k-points >= 100: set verbosity='high' to print them.

     Dense  grid:    20875 G-vectors     FFT dimensions: (  40,  40,  40)

     Smooth grid:     5209 G-vectors     FFT dimensions: (  25,  25,  25)

     Estimated max dynamical RAM per process >       1.51 MB

     Estimated total dynamical RAM >       9.06 MB

     The potential is recalculated from file :
     ./tmp/_ph0/al.save/charge-density

     Starting wfcs are    4 atomic +    2 random wfcs

     Band Structure Calculation
     Davidson diagonalization with overlap

     ethr =  3.33E-10,  avg # of iterations = 15.4

     total cpu time spent up to now is       21.7 secs

     End of band structure calculation

     Number of k-points >= 100: set verbosity='high' to print the bands.

     the Fermi energy is     7.7758 ev

     Writing config to output data dir ./tmp/_ph0/al.save/

     al                                                                         

     bravais-lattice index     =            2
     lattice parameter (alat)  =       7.6307  a.u.
     unit-cell volume          =     111.0815 (a.u.)^3
     number of atoms/cell      =            1
     number of atomic types    =            1
     kinetic-energy cut-off    =      50.0000  Ry
     charge density cut-off    =     500.0000  Ry
     convergence threshold     =      1.0E-13
     beta                      =       0.7000
     number of iterations used =            4
     Exchange-correlation= PZ
                           (   1   1   0   0   0   0   0)


     celldm(1)=    7.63075  celldm(2)=    0.00000  celldm(3)=    0.00000
     celldm(4)=    0.00000  celldm(5)=    0.00000  celldm(6)=    0.00000

     crystal axes: (cart. coord. in units of alat)
               a(1) = ( -0.5000  0.0000  0.5000 )  
               a(2) = (  0.0000  0.5000  0.5000 )  
               a(3) = ( -0.5000  0.5000  0.0000 )  

     reciprocal axes: (cart. coord. in units 2 pi/alat)
               b(1) = ( -1.0000 -1.0000  1.0000 )  
               b(2) = (  1.0000  1.0000  1.0000 )  
               b(3) = ( -1.0000  1.0000 -1.0000 )  


     Atoms inside the unit cell: 

     Cartesian axes

     site n.  atom      mass           positions (alat units)
        1     Al  26.9815   tau(    1) = (    0.00000    0.00000    0.00000  )

     Computing dynamical matrix for 
                    q = (   0.7500000  -0.2500000   0.7500000 )

      2 Sym.Ops. (no q -> -q+G )


     G cutoff =  737.4706  (   3480 G-vectors)     FFT grid: ( 40, 40, 40)
     G cutoff =  294.9882  (    868 G-vectors)  smooth grid: ( 25, 25, 25)

     number of k points=   576  Gaussian smearing, width (Ry)=  0.0100

     PseudoPot. # 1 for Al read from file:
     /home/bonacc_m/Documents/phonons/material-for-ljubljana-qe-summer-school/pseudo/Al.pz-vbc.UPF
     MD5 check sum: 69dcd8cd7cc1bedf536afd524f174f6a
     Pseudo is Norm-conserving, Zval =  3.0
     Generated by new atomic code, or converted to UPF format
     Using radial grid of  171 points,  2 beta functions with: 
                l(1) =   0
                l(2) =   1

     Mode symmetry, C_s (m)     point group:


     Atomic displacements:
     There are    3 irreducible representations

     Representation     1      1 modes -  To be done

     Representation     2      1 modes -  To be done

     Representation     3      1 modes -  To be done



     Alpha used in Ewald sum =   2.8000
     PHONON       :     36.33s CPU     38.12s WALL



     Representation #   1 mode #   1

     Self-consistent Calculation

      iter #   1 total cpu time :    39.1 secs   av.it.:   4.5
      thresh= 1.000E-02 alpha_mix =  0.700 |ddv_scf|^2 =  9.125E-06

      iter #   2 total cpu time :    40.1 secs   av.it.:   6.7
      thresh= 3.021E-04 alpha_mix =  0.700 |ddv_scf|^2 =  1.492E-05

      iter #   3 total cpu time :    41.0 secs   av.it.:   6.0
      thresh= 3.862E-04 alpha_mix =  0.700 |ddv_scf|^2 =  1.667E-08

      iter #   4 total cpu time :    42.0 secs   av.it.:   6.8
      thresh= 1.291E-05 alpha_mix =  0.700 |ddv_scf|^2 =  1.141E-10

      iter #   5 total cpu time :    43.0 secs   av.it.:   6.7
      thresh= 1.068E-06 alpha_mix =  0.700 |ddv_scf|^2 =  4.086E-12

      iter #   6 total cpu time :    44.0 secs   av.it.:   6.8
      thresh= 2.021E-07 alpha_mix =  0.700 |ddv_scf|^2 =  1.841E-14

     End of self-consistent calculation

     Convergence has been achieved 


     Representation #   2 mode #   2

     Self-consistent Calculation

      iter #   1 total cpu time :    45.0 secs   av.it.:   4.2
      thresh= 1.000E-02 alpha_mix =  0.700 |ddv_scf|^2 =  1.495E-06

      iter #   2 total cpu time :    46.0 secs   av.it.:   6.9
      thresh= 1.223E-04 alpha_mix =  0.700 |ddv_scf|^2 =  2.200E-06

      iter #   3 total cpu time :    46.9 secs   av.it.:   6.1
      thresh= 1.483E-04 alpha_mix =  0.700 |ddv_scf|^2 =  8.779E-09

      iter #   4 total cpu time :    47.9 secs   av.it.:   6.8
      thresh= 9.370E-06 alpha_mix =  0.700 |ddv_scf|^2 =  1.366E-10

      iter #   5 total cpu time :    48.8 secs   av.it.:   6.8
      thresh= 1.169E-06 alpha_mix =  0.700 |ddv_scf|^2 =  9.354E-12

      iter #   6 total cpu time :    49.6 secs   av.it.:   6.8
      thresh= 3.058E-07 alpha_mix =  0.700 |ddv_scf|^2 =  5.925E-15

     End of self-consistent calculation

     Convergence has been achieved 


     Representation #   3 mode #   3

     Self-consistent Calculation

      iter #   1 total cpu time :    50.5 secs   av.it.:   3.7
      thresh= 1.000E-02 alpha_mix =  0.700 |ddv_scf|^2 =  2.768E-08

      iter #   2 total cpu time :    51.3 secs   av.it.:   6.7
      thresh= 1.664E-05 alpha_mix =  0.700 |ddv_scf|^2 =  7.145E-10

      iter #   3 total cpu time :    52.1 secs   av.it.:   6.0
      thresh= 2.673E-06 alpha_mix =  0.700 |ddv_scf|^2 =  5.422E-11

      iter #   4 total cpu time :    53.0 secs   av.it.:   6.2
      thresh= 7.363E-07 alpha_mix =  0.700 |ddv_scf|^2 =  3.777E-15

     End of self-consistent calculation

     Convergence has been achieved 

     Number of q in the star =   24
     List of q in the star:
          1   0.750000000  -0.250000000   0.750000000
          2   0.750000000  -0.250000000  -0.750000000
          3  -0.750000000  -0.250000000  -0.750000000
          4  -0.750000000  -0.250000000   0.750000000
          5  -0.750000000   0.250000000  -0.750000000
          6  -0.250000000   0.750000000  -0.750000000
          7  -0.750000000   0.750000000  -0.250000000
          8   0.750000000   0.250000000   0.750000000
          9  -0.750000000   0.250000000   0.750000000
         10   0.750000000   0.250000000  -0.750000000
         11  -0.750000000   0.750000000   0.250000000
         12  -0.250000000   0.750000000   0.750000000
         13   0.250000000   0.750000000  -0.750000000
         14  -0.250000000  -0.750000000  -0.750000000
         15   0.750000000   0.750000000  -0.250000000
         16   0.750000000  -0.750000000   0.250000000
         17  -0.750000000  -0.750000000  -0.250000000
         18   0.250000000  -0.750000000   0.750000000
         19  -0.750000000  -0.750000000   0.250000000
         20   0.250000000   0.750000000   0.750000000
         21  -0.250000000  -0.750000000   0.750000000
         22   0.750000000   0.750000000   0.250000000
         23   0.250000000  -0.750000000  -0.750000000
         24   0.750000000  -0.750000000  -0.250000000

     Diagonalizing the dynamical matrix

     q = (    0.750000000  -0.250000000   0.750000000 ) 

 **************************************************************************
     freq (    1) =       4.818291 [THz] =     160.720902 [cm-1]
     freq (    2) =       6.165022 [THz] =     205.642984 [cm-1]
     freq (    3) =       7.798322 [THz] =     260.124013 [cm-1]
 **************************************************************************

     Mode symmetry, C_s (m)     point group:

     freq (   1-   1) =        160.7  [cm-1]   --> A''                
     freq (   2-   2) =        205.6  [cm-1]   --> A'                 
     freq (   3-   3) =        260.1  [cm-1]   --> A'                 

     Calculation of q =    0.5000000   0.0000000   0.5000000

     Parallelization info
     --------------------
     sticks:   dense  smooth     PW     G-vecs:    dense   smooth      PW
     Min         167      66     25                 3478      867     206
     Max         168      67     26                 3481      869     209
     Sum        1003     397    151                20875     5209    1243

     Using Slab Decomposition


     Title: 
     al                                                                         


     bravais-lattice index     =            2
     lattice parameter (alat)  =       7.6307  a.u.
     unit-cell volume          =     111.0815 (a.u.)^3
     number of atoms/cell      =            1
     number of atomic types    =            1
     number of electrons       =         3.00
     number of Kohn-Sham states=            6
     kinetic-energy cutoff     =      50.0000  Ry
     charge density cutoff     =     500.0000  Ry
     Exchange-correlation= PZ
                           (   1   1   0   0   0   0   0)

     celldm(1)=   7.630750  celldm(2)=   0.000000  celldm(3)=   0.000000
     celldm(4)=   0.000000  celldm(5)=   0.000000  celldm(6)=   0.000000

     crystal axes: (cart. coord. in units of alat)
               a(1) = (  -0.500000   0.000000   0.500000 )  
               a(2) = (   0.000000   0.500000   0.500000 )  
               a(3) = (  -0.500000   0.500000   0.000000 )  

     reciprocal axes: (cart. coord. in units 2 pi/alat)
               b(1) = ( -1.000000 -1.000000  1.000000 )  
               b(2) = (  1.000000  1.000000  1.000000 )  
               b(3) = ( -1.000000  1.000000 -1.000000 )  


     PseudoPot. # 1 for Al read from file:
     /home/bonacc_m/Documents/phonons/material-for-ljubljana-qe-summer-school/pseudo/Al.pz-vbc.UPF
     MD5 check sum: 69dcd8cd7cc1bedf536afd524f174f6a
     Pseudo is Norm-conserving, Zval =  3.0
     Generated by new atomic code, or converted to UPF format
     Using radial grid of  171 points,  2 beta functions with: 
                l(1) =   0
                l(2) =   1

     atomic species   valence    mass     pseudopotential
        Al             3.00    26.98154     Al( 1.00)

     48 Sym. Ops., with inversion, found



   Cartesian axes

     site n.     atom                  positions (alat units)
         1           Al  tau(   1) = (   0.0000000   0.0000000   0.0000000  )

     number of k points=   328  Gaussian smearing, width (Ry)=  0.0100

     Number of k-points >= 100: set verbosity='high' to print them.

     Dense  grid:    20875 G-vectors     FFT dimensions: (  40,  40,  40)

     Smooth grid:     5209 G-vectors     FFT dimensions: (  25,  25,  25)

     Estimated max dynamical RAM per process >       1.51 MB

     Estimated total dynamical RAM >       9.04 MB

     The potential is recalculated from file :
     ./tmp/_ph0/al.save/charge-density

     Starting wfcs are    4 atomic +    2 random wfcs

     Band Structure Calculation
     Davidson diagonalization with overlap

     ethr =  3.33E-10,  avg # of iterations = 15.4

     total cpu time spent up to now is       27.2 secs

     End of band structure calculation

     Number of k-points >= 100: set verbosity='high' to print the bands.

     the Fermi energy is     7.7758 ev

     Writing config to output data dir ./tmp/_ph0/al.save/

     al                                                                         

     bravais-lattice index     =            2
     lattice parameter (alat)  =       7.6307  a.u.
     unit-cell volume          =     111.0815 (a.u.)^3
     number of atoms/cell      =            1
     number of atomic types    =            1
     kinetic-energy cut-off    =      50.0000  Ry
     charge density cut-off    =     500.0000  Ry
     convergence threshold     =      1.0E-13
     beta                      =       0.7000
     number of iterations used =            4
     Exchange-correlation= PZ
                           (   1   1   0   0   0   0   0)


     celldm(1)=    7.63075  celldm(2)=    0.00000  celldm(3)=    0.00000
     celldm(4)=    0.00000  celldm(5)=    0.00000  celldm(6)=    0.00000

     crystal axes: (cart. coord. in units of alat)
               a(1) = ( -0.5000  0.0000  0.5000 )  
               a(2) = (  0.0000  0.5000  0.5000 )  
               a(3) = ( -0.5000  0.5000  0.0000 )  

     reciprocal axes: (cart. coord. in units 2 pi/alat)
               b(1) = ( -1.0000 -1.0000  1.0000 )  
               b(2) = (  1.0000  1.0000  1.0000 )  
               b(3) = ( -1.0000  1.0000 -1.0000 )  


     Atoms inside the unit cell: 

     Cartesian axes

     site n.  atom      mass           positions (alat units)
        1     Al  26.9815   tau(    1) = (    0.00000    0.00000    0.00000  )

     Computing dynamical matrix for 
                    q = (   0.5000000   0.0000000   0.5000000 )

      4 Sym.Ops. (no q -> -q+G )


     G cutoff =  737.4706  (   3479 G-vectors)     FFT grid: ( 40, 40, 40)
     G cutoff =  294.9882  (    868 G-vectors)  smooth grid: ( 25, 25, 25)

     number of k points=   328  Gaussian smearing, width (Ry)=  0.0100

     PseudoPot. # 1 for Al read from file:
     /home/bonacc_m/Documents/phonons/material-for-ljubljana-qe-summer-school/pseudo/Al.pz-vbc.UPF
     MD5 check sum: 69dcd8cd7cc1bedf536afd524f174f6a
     Pseudo is Norm-conserving, Zval =  3.0
     Generated by new atomic code, or converted to UPF format
     Using radial grid of  171 points,  2 beta functions with: 
                l(1) =   0
                l(2) =   1

     Mode symmetry, C_2v (mm2)  point group:


     Atomic displacements:
     There are    3 irreducible representations

     Representation     1      1 modes -  To be done

     Representation     2      1 modes -  To be done

     Representation     3      1 modes -  To be done



     Alpha used in Ewald sum =   2.8000
     PHONON       :     55.74s CPU     58.49s WALL



     Representation #   1 mode #   1

     Self-consistent Calculation

      iter #   1 total cpu time :    59.1 secs   av.it.:   4.3
      thresh= 1.000E-02 alpha_mix =  0.700 |ddv_scf|^2 =  3.101E-05

      iter #   2 total cpu time :    59.6 secs   av.it.:   6.2
      thresh= 5.569E-04 alpha_mix =  0.700 |ddv_scf|^2 =  1.146E-04

      iter #   3 total cpu time :    60.1 secs   av.it.:   5.4
      thresh= 1.071E-03 alpha_mix =  0.700 |ddv_scf|^2 =  2.681E-09

      iter #   4 total cpu time :    60.7 secs   av.it.:   7.0
      thresh= 5.178E-06 alpha_mix =  0.700 |ddv_scf|^2 =  8.734E-11

      iter #   5 total cpu time :    61.3 secs   av.it.:   6.6
      thresh= 9.345E-07 alpha_mix =  0.700 |ddv_scf|^2 =  4.102E-12

      iter #   6 total cpu time :    61.8 secs   av.it.:   6.5
      thresh= 2.025E-07 alpha_mix =  0.700 |ddv_scf|^2 =  5.702E-16

     End of self-consistent calculation

     Convergence has been achieved 


     Representation #   2 mode #   2

     Self-consistent Calculation

      iter #   1 total cpu time :    62.4 secs   av.it.:   3.6
      thresh= 1.000E-02 alpha_mix =  0.700 |ddv_scf|^2 =  1.058E-08

      iter #   2 total cpu time :    62.9 secs   av.it.:   6.5
      thresh= 1.029E-05 alpha_mix =  0.700 |ddv_scf|^2 =  7.536E-10

      iter #   3 total cpu time :    63.5 secs   av.it.:   6.3
      thresh= 2.745E-06 alpha_mix =  0.700 |ddv_scf|^2 =  1.241E-11

      iter #   4 total cpu time :    63.9 secs   av.it.:   6.4
      thresh= 3.522E-07 alpha_mix =  0.700 |ddv_scf|^2 =  7.568E-15

     End of self-consistent calculation

     Convergence has been achieved 


     Representation #   3 mode #   3

     Self-consistent Calculation

      iter #   1 total cpu time :    64.4 secs   av.it.:   3.9
      thresh= 1.000E-02 alpha_mix =  0.700 |ddv_scf|^2 =  2.653E-07

      iter #   2 total cpu time :    65.0 secs   av.it.:   6.7
      thresh= 5.151E-05 alpha_mix =  0.700 |ddv_scf|^2 =  1.744E-08

      iter #   3 total cpu time :    65.5 secs   av.it.:   6.7
      thresh= 1.321E-05 alpha_mix =  0.700 |ddv_scf|^2 =  1.545E-10

      iter #   4 total cpu time :    66.1 secs   av.it.:   6.5
      thresh= 1.243E-06 alpha_mix =  0.700 |ddv_scf|^2 =  1.248E-13

      iter #   5 total cpu time :    66.6 secs   av.it.:   6.8
      thresh= 3.533E-08 alpha_mix =  0.700 |ddv_scf|^2 =  8.223E-16

     End of self-consistent calculation

     Convergence has been achieved 

     Number of q in the star =   12
     List of q in the star:
          1   0.500000000   0.000000000   0.500000000
          2  -0.500000000   0.000000000   0.500000000
          3  -0.500000000   0.000000000  -0.500000000
          4   0.500000000   0.000000000  -0.500000000
          5   0.000000000   0.500000000  -0.500000000
          6  -0.500000000   0.500000000   0.000000000
          7   0.000000000   0.500000000   0.500000000
          8   0.000000000  -0.500000000  -0.500000000
          9   0.500000000   0.500000000   0.000000000
         10   0.500000000  -0.500000000   0.000000000
         11  -0.500000000  -0.500000000   0.000000000
         12   0.000000000  -0.500000000   0.500000000

     Diagonalizing the dynamical matrix

     q = (    0.500000000   0.000000000   0.500000000 ) 

 **************************************************************************
     freq (    1) =       4.456307 [THz] =     148.646415 [cm-1]
     freq (    2) =       6.048630 [THz] =     201.760568 [cm-1]
     freq (    3) =       7.633208 [THz] =     254.616399 [cm-1]
 **************************************************************************

     Mode symmetry, C_2v (mm2)  point group:

     freq (   1-   1) =        148.6  [cm-1]   --> B_1  D_3  S_3      
     freq (   2-   2) =        201.8  [cm-1]   --> B_2  D_4  S_4      
     freq (   3-   3) =        254.6  [cm-1]   --> A_1  D_1  S_1      

     Calculation of q =    0.0000000  -1.0000000   0.0000000

     Parallelization info
     --------------------
     sticks:   dense  smooth     PW     G-vecs:    dense   smooth      PW
     Min         167      66     25                 3478      867     206
     Max         168      67     26                 3481      869     209
     Sum        1003     397    151                20875     5209    1243

     Using Slab Decomposition


     Title: 
     al                                                                         


     bravais-lattice index     =            2
     lattice parameter (alat)  =       7.6307  a.u.
     unit-cell volume          =     111.0815 (a.u.)^3
     number of atoms/cell      =            1
     number of atomic types    =            1
     number of electrons       =         3.00
     number of Kohn-Sham states=            6
     kinetic-energy cutoff     =      50.0000  Ry
     charge density cutoff     =     500.0000  Ry
     Exchange-correlation= PZ
                           (   1   1   0   0   0   0   0)

     celldm(1)=   7.630750  celldm(2)=   0.000000  celldm(3)=   0.000000
     celldm(4)=   0.000000  celldm(5)=   0.000000  celldm(6)=   0.000000

     crystal axes: (cart. coord. in units of alat)
               a(1) = (  -0.500000   0.000000   0.500000 )  
               a(2) = (   0.000000   0.500000   0.500000 )  
               a(3) = (  -0.500000   0.500000   0.000000 )  

     reciprocal axes: (cart. coord. in units 2 pi/alat)
               b(1) = ( -1.000000 -1.000000  1.000000 )  
               b(2) = (  1.000000  1.000000  1.000000 )  
               b(3) = ( -1.000000  1.000000 -1.000000 )  


     PseudoPot. # 1 for Al read from file:
     /home/bonacc_m/Documents/phonons/material-for-ljubljana-qe-summer-school/pseudo/Al.pz-vbc.UPF
     MD5 check sum: 69dcd8cd7cc1bedf536afd524f174f6a
     Pseudo is Norm-conserving, Zval =  3.0
     Generated by new atomic code, or converted to UPF format
     Using radial grid of  171 points,  2 beta functions with: 
                l(1) =   0
                l(2) =   1

     atomic species   valence    mass     pseudopotential
        Al             3.00    26.98154     Al( 1.00)

     48 Sym. Ops., with inversion, found



   Cartesian axes

     site n.     atom                  positions (alat units)
         1           Al  tau(   1) = (   0.0000000   0.0000000   0.0000000  )

     number of k points=   118  Gaussian smearing, width (Ry)=  0.0100

     Number of k-points >= 100: set verbosity='high' to print them.

     Dense  grid:    20875 G-vectors     FFT dimensions: (  40,  40,  40)

     Smooth grid:     5209 G-vectors     FFT dimensions: (  25,  25,  25)

     Estimated max dynamical RAM per process >       1.51 MB

     Estimated total dynamical RAM >       9.05 MB

     The potential is recalculated from file :
     ./tmp/_ph0/al.save/charge-density

     Starting wfcs are    4 atomic +    2 random wfcs

     Band Structure Calculation
     Davidson diagonalization with overlap

     ethr =  3.33E-10,  avg # of iterations = 15.3

     total cpu time spent up to now is       29.4 secs

     End of band structure calculation

     Number of k-points >= 100: set verbosity='high' to print the bands.

     the Fermi energy is     7.7758 ev

     Writing config to output data dir ./tmp/_ph0/al.save/

     al                                                                         

     bravais-lattice index     =            2
     lattice parameter (alat)  =       7.6307  a.u.
     unit-cell volume          =     111.0815 (a.u.)^3
     number of atoms/cell      =            1
     number of atomic types    =            1
     kinetic-energy cut-off    =      50.0000  Ry
     charge density cut-off    =     500.0000  Ry
     convergence threshold     =      1.0E-13
     beta                      =       0.7000
     number of iterations used =            4
     Exchange-correlation= PZ
                           (   1   1   0   0   0   0   0)


     celldm(1)=    7.63075  celldm(2)=    0.00000  celldm(3)=    0.00000
     celldm(4)=    0.00000  celldm(5)=    0.00000  celldm(6)=    0.00000

     crystal axes: (cart. coord. in units of alat)
               a(1) = ( -0.5000  0.0000  0.5000 )  
               a(2) = (  0.0000  0.5000  0.5000 )  
               a(3) = ( -0.5000  0.5000  0.0000 )  

     reciprocal axes: (cart. coord. in units 2 pi/alat)
               b(1) = ( -1.0000 -1.0000  1.0000 )  
               b(2) = (  1.0000  1.0000  1.0000 )  
               b(3) = ( -1.0000  1.0000 -1.0000 )  


     Atoms inside the unit cell: 

     Cartesian axes

     site n.  atom      mass           positions (alat units)
        1     Al  26.9815   tau(    1) = (    0.00000    0.00000    0.00000  )

     Computing dynamical matrix for 
                    q = (   0.0000000  -1.0000000   0.0000000 )

     17 Sym.Ops. (with q -> -q+G )


     G cutoff =  737.4706  (   3479 G-vectors)     FFT grid: ( 40, 40, 40)
     G cutoff =  294.9882  (    868 G-vectors)  smooth grid: ( 25, 25, 25)

     number of k points=   118  Gaussian smearing, width (Ry)=  0.0100

     PseudoPot. # 1 for Al read from file:
     /home/bonacc_m/Documents/phonons/material-for-ljubljana-qe-summer-school/pseudo/Al.pz-vbc.UPF
     MD5 check sum: 69dcd8cd7cc1bedf536afd524f174f6a
     Pseudo is Norm-conserving, Zval =  3.0
     Generated by new atomic code, or converted to UPF format
     Using radial grid of  171 points,  2 beta functions with: 
                l(1) =   0
                l(2) =   1

     Mode symmetry, D_4h(4/mmm) point group:


     Atomic displacements:
     There are    2 irreducible representations

     Representation     1      1 modes -  To be done

     Representation     2      2 modes -  To be done



     Alpha used in Ewald sum =   2.8000
     PHONON       :   1m 5.57s CPU   1m 8.89s WALL



     Representation #   1 mode #   1

     Self-consistent Calculation

      iter #   1 total cpu time :    69.1 secs   av.it.:   4.1
      thresh= 1.000E-02 alpha_mix =  0.700 |ddv_scf|^2 =  2.946E-06

      iter #   2 total cpu time :    69.4 secs   av.it.:   6.3
      thresh= 1.716E-04 alpha_mix =  0.700 |ddv_scf|^2 =  1.037E-06

      iter #   3 total cpu time :    69.6 secs   av.it.:   6.0
      thresh= 1.018E-04 alpha_mix =  0.700 |ddv_scf|^2 =  2.509E-10

      iter #   4 total cpu time :    69.9 secs   av.it.:   6.1
      thresh= 1.584E-06 alpha_mix =  0.700 |ddv_scf|^2 =  9.985E-13

      iter #   5 total cpu time :    70.1 secs   av.it.:   6.1
      thresh= 9.992E-08 alpha_mix =  0.700 |ddv_scf|^2 =  1.704E-16

     End of self-consistent calculation

     Convergence has been achieved 


     Representation #   2 modes #   2   3

     Self-consistent Calculation

      iter #   1 total cpu time :    70.6 secs   av.it.:   3.9
      thresh= 1.000E-02 alpha_mix =  0.700 |ddv_scf|^2 =  1.674E-08

      iter #   2 total cpu time :    71.0 secs   av.it.:   7.1
      thresh= 1.294E-05 alpha_mix =  0.700 |ddv_scf|^2 =  2.717E-10

      iter #   3 total cpu time :    71.5 secs   av.it.:   6.9
      thresh= 1.648E-06 alpha_mix =  0.700 |ddv_scf|^2 =  2.333E-11

      iter #   4 total cpu time :    72.0 secs   av.it.:   6.7
      thresh= 4.830E-07 alpha_mix =  0.700 |ddv_scf|^2 =  1.221E-15

     End of self-consistent calculation

     Convergence has been achieved 

     Number of q in the star =    3
     List of q in the star:
          1   0.000000000  -1.000000000   0.000000000
          2  -1.000000000   0.000000000   0.000000000
          3   0.000000000   0.000000000  -1.000000000

     Diagonalizing the dynamical matrix

     q = (    0.000000000  -1.000000000   0.000000000 ) 

 **************************************************************************
     freq (    1) =       5.191124 [THz] =     173.157252 [cm-1]
     freq (    2) =       5.191124 [THz] =     173.157252 [cm-1]
     freq (    3) =       9.782679 [THz] =     326.315041 [cm-1]
 **************************************************************************

     Mode symmetry, D_4h(4/mmm) point group:

     freq (   1-   2) =        173.2  [cm-1]   --> E_u  X_5' M_5'     
     freq (   3-   3) =        326.3  [cm-1]   --> A_2u X_4' M_4'     

     Calculation of q =   -0.5000000  -1.0000000   0.0000000

     Parallelization info
     --------------------
     sticks:   dense  smooth     PW     G-vecs:    dense   smooth      PW
     Min         167      66     26                 3478      867     226
     Max         168      67     28                 3481      869     228
     Sum        1003     397    163                20875     5209    1363

     Using Slab Decomposition


     Title: 
     al                                                                         


     bravais-lattice index     =            2
     lattice parameter (alat)  =       7.6307  a.u.
     unit-cell volume          =     111.0815 (a.u.)^3
     number of atoms/cell      =            1
     number of atomic types    =            1
     number of electrons       =         3.00
     number of Kohn-Sham states=            6
     kinetic-energy cutoff     =      50.0000  Ry
     charge density cutoff     =     500.0000  Ry
     Exchange-correlation= PZ
                           (   1   1   0   0   0   0   0)

     celldm(1)=   7.630750  celldm(2)=   0.000000  celldm(3)=   0.000000
     celldm(4)=   0.000000  celldm(5)=   0.000000  celldm(6)=   0.000000

     crystal axes: (cart. coord. in units of alat)
               a(1) = (  -0.500000   0.000000   0.500000 )  
               a(2) = (   0.000000   0.500000   0.500000 )  
               a(3) = (  -0.500000   0.500000   0.000000 )  

     reciprocal axes: (cart. coord. in units 2 pi/alat)
               b(1) = ( -1.000000 -1.000000  1.000000 )  
               b(2) = (  1.000000  1.000000  1.000000 )  
               b(3) = ( -1.000000  1.000000 -1.000000 )  


     PseudoPot. # 1 for Al read from file:
     /home/bonacc_m/Documents/phonons/material-for-ljubljana-qe-summer-school/pseudo/Al.pz-vbc.UPF
     MD5 check sum: 69dcd8cd7cc1bedf536afd524f174f6a
     Pseudo is Norm-conserving, Zval =  3.0
     Generated by new atomic code, or converted to UPF format
     Using radial grid of  171 points,  2 beta functions with: 
                l(1) =   0
                l(2) =   1

     atomic species   valence    mass     pseudopotential
        Al             3.00    26.98154     Al( 1.00)

     48 Sym. Ops., with inversion, found



   Cartesian axes

     site n.     atom                  positions (alat units)
         1           Al  tau(   1) = (   0.0000000   0.0000000   0.0000000  )

     number of k points=   174  Gaussian smearing, width (Ry)=  0.0100

     Number of k-points >= 100: set verbosity='high' to print them.

     Dense  grid:    20875 G-vectors     FFT dimensions: (  40,  40,  40)

     Smooth grid:     5209 G-vectors     FFT dimensions: (  25,  25,  25)

     Estimated max dynamical RAM per process >       1.51 MB

     Estimated total dynamical RAM >       9.06 MB

     The potential is recalculated from file :
     ./tmp/_ph0/al.save/charge-density

     Starting wfcs are    4 atomic +    2 random wfcs

     Band Structure Calculation
     Davidson diagonalization with overlap

     ethr =  3.33E-10,  avg # of iterations = 14.9

     total cpu time spent up to now is       32.6 secs

     End of band structure calculation

     Number of k-points >= 100: set verbosity='high' to print the bands.

     the Fermi energy is     7.7758 ev

     Writing config to output data dir ./tmp/_ph0/al.save/

     al                                                                         

     bravais-lattice index     =            2
     lattice parameter (alat)  =       7.6307  a.u.
     unit-cell volume          =     111.0815 (a.u.)^3
     number of atoms/cell      =            1
     number of atomic types    =            1
     kinetic-energy cut-off    =      50.0000  Ry
     charge density cut-off    =     500.0000  Ry
     convergence threshold     =      1.0E-13
     beta                      =       0.7000
     number of iterations used =            4
     Exchange-correlation= PZ
                           (   1   1   0   0   0   0   0)


     celldm(1)=    7.63075  celldm(2)=    0.00000  celldm(3)=    0.00000
     celldm(4)=    0.00000  celldm(5)=    0.00000  celldm(6)=    0.00000

     crystal axes: (cart. coord. in units of alat)
               a(1) = ( -0.5000  0.0000  0.5000 )  
               a(2) = (  0.0000  0.5000  0.5000 )  
               a(3) = ( -0.5000  0.5000  0.0000 )  

     reciprocal axes: (cart. coord. in units 2 pi/alat)
               b(1) = ( -1.0000 -1.0000  1.0000 )  
               b(2) = (  1.0000  1.0000  1.0000 )  
               b(3) = ( -1.0000  1.0000 -1.0000 )  


     Atoms inside the unit cell: 

     Cartesian axes

     site n.  atom      mass           positions (alat units)
        1     Al  26.9815   tau(    1) = (    0.00000    0.00000    0.00000  )

     Computing dynamical matrix for 
                    q = (  -0.5000000  -1.0000000   0.0000000 )

      8 Sym.Ops. (no q -> -q+G )


     G cutoff =  737.4706  (   3480 G-vectors)     FFT grid: ( 40, 40, 40)
     G cutoff =  294.9882  (    868 G-vectors)  smooth grid: ( 25, 25, 25)

     number of k points=   174  Gaussian smearing, width (Ry)=  0.0100

     PseudoPot. # 1 for Al read from file:
     /home/bonacc_m/Documents/phonons/material-for-ljubljana-qe-summer-school/pseudo/Al.pz-vbc.UPF
     MD5 check sum: 69dcd8cd7cc1bedf536afd524f174f6a
     Pseudo is Norm-conserving, Zval =  3.0
     Generated by new atomic code, or converted to UPF format
     Using radial grid of  171 points,  2 beta functions with: 
                l(1) =   0
                l(2) =   1

     Mode symmetry, D_2d (-42m) point group:


     Atomic displacements:
     There are    2 irreducible representations

     Representation     1      1 modes -  To be done

     Representation     2      2 modes -  To be done



     Alpha used in Ewald sum =   2.8000
     PHONON       :   1m11.66s CPU   1m15.29s WALL



     Representation #   1 mode #   1

     Self-consistent Calculation

      iter #   1 total cpu time :    75.6 secs   av.it.:   4.1
      thresh= 1.000E-02 alpha_mix =  0.700 |ddv_scf|^2 =  4.230E-07

      iter #   2 total cpu time :    75.9 secs   av.it.:   7.0
      thresh= 6.504E-05 alpha_mix =  0.700 |ddv_scf|^2 =  5.924E-08

      iter #   3 total cpu time :    76.3 secs   av.it.:   6.8
      thresh= 2.434E-05 alpha_mix =  0.700 |ddv_scf|^2 =  1.937E-10

      iter #   4 total cpu time :    76.6 secs   av.it.:   6.6
      thresh= 1.392E-06 alpha_mix =  0.700 |ddv_scf|^2 =  4.757E-13

      iter #   5 total cpu time :    76.9 secs   av.it.:   6.8
      thresh= 6.897E-08 alpha_mix =  0.700 |ddv_scf|^2 =  9.079E-16

     End of self-consistent calculation

     Convergence has been achieved 


     Representation #   2 modes #   2   3

     Self-consistent Calculation

      iter #   1 total cpu time :    77.5 secs   av.it.:   4.0
      thresh= 1.000E-02 alpha_mix =  0.700 |ddv_scf|^2 =  2.299E-07

      iter #   2 total cpu time :    78.2 secs   av.it.:   7.0
      thresh= 4.795E-05 alpha_mix =  0.700 |ddv_scf|^2 =  4.152E-08

      iter #   3 total cpu time :    78.8 secs   av.it.:   6.8
      thresh= 2.038E-05 alpha_mix =  0.700 |ddv_scf|^2 =  5.137E-11

      iter #   4 total cpu time :    79.5 secs   av.it.:   6.8
      thresh= 7.167E-07 alpha_mix =  0.700 |ddv_scf|^2 =  8.881E-14

     End of self-consistent calculation

     Convergence has been achieved 

     Number of q in the star =    6
     List of q in the star:
          1  -0.500000000  -1.000000000   0.000000000
          2   0.000000000   1.000000000   0.500000000
          3   0.000000000  -1.000000000  -0.500000000
          4   0.500000000   1.000000000   0.000000000
          5  -1.000000000  -0.500000000   0.000000000
          6   0.000000000  -0.500000000  -1.000000000

     Diagonalizing the dynamical matrix

     q = (   -0.500000000  -1.000000000   0.000000000 ) 

 **************************************************************************
     freq (    1) =       5.970697 [THz] =     199.161029 [cm-1]
     freq (    2) =       7.409828 [THz] =     247.165253 [cm-1]
     freq (    3) =       7.409828 [THz] =     247.165253 [cm-1]
 **************************************************************************

     Mode symmetry, D_2d (-42m) point group:

     freq (   1-   1) =        199.2  [cm-1]   --> B_2  X_3  W_2      
     freq (   2-   3) =        247.2  [cm-1]   --> E    X_5  W_3      

     init_run     :      0.15s CPU      0.15s WALL (       7 calls)
     electrons    :     31.12s CPU     32.27s WALL (       7 calls)

     Called by init_run:
     wfcinit      :      0.00s CPU      0.00s WALL (       7 calls)
     potinit      :      0.02s CPU      0.02s WALL (       7 calls)
     hinit0       :      0.02s CPU      0.02s WALL (       7 calls)

     Called by electrons:
     c_bands      :     31.12s CPU     32.26s WALL (       7 calls)
     v_of_rho     :      0.01s CPU      0.01s WALL (       8 calls)

     Called by c_bands:
     init_us_2    :      0.38s CPU      0.40s WALL (   19507 calls)
     init_us_2:cp :      0.35s CPU      0.38s WALL (   19507 calls)
     cegterg      :     28.79s CPU     29.85s WALL (    2008 calls)

     Called by *egterg:
     cdiaghg      :      3.09s CPU      3.20s WALL (   28982 calls)
     h_psi        :     49.01s CPU     51.53s WALL (  118486 calls)
     g_psi        :      0.10s CPU      0.10s WALL (   27216 calls)

     Called by h_psi:
     h_psi:calbec :      1.45s CPU      1.53s WALL (  118486 calls)
     vloc_psi     :     46.59s CPU     48.97s WALL (  118486 calls)
     add_vuspsi   :      0.45s CPU      0.48s WALL (  118486 calls)

     General routines
     calbec       :      2.33s CPU      2.49s WALL (  226075 calls)
     fft          :      0.24s CPU      0.26s WALL (     606 calls)
     ffts         :      0.38s CPU      0.40s WALL (    3065 calls)
     fftw         :     52.19s CPU     54.93s WALL (  636800 calls)
     interpolate  :      0.10s CPU      0.12s WALL (     232 calls)
     davcio       :      0.85s CPU      0.94s WALL (   72720 calls)

     Parallel routines

     PHONON       :   1m15.59s CPU   1m19.48s WALL

     INITIALIZATION: 
     phq_setup    :      0.02s CPU      0.02s WALL (       8 calls)
     phq_init     :      0.29s CPU      0.32s WALL (       8 calls)

     phq_init     :      0.29s CPU      0.32s WALL (       8 calls)
     init_vloc    :      0.00s CPU      0.00s WALL (       8 calls)
     init_us_1    :      0.01s CPU      0.01s WALL (       8 calls)
     init_us_2    :      0.38s CPU      0.40s WALL (   19507 calls)

     DYNAMICAL MATRIX:
     dynmat0      :      0.15s CPU      0.17s WALL (       8 calls)
     phqscf       :     43.64s CPU     46.34s WALL (       8 calls)
     dynmatrix    :      0.00s CPU      0.00s WALL (       8 calls)

     phqscf       :     43.64s CPU     46.34s WALL (       8 calls)
     solve_linter :     43.35s CPU     46.01s WALL (      17 calls)
     drhodv       :      0.28s CPU      0.31s WALL (      17 calls)

     dynmat0      :      0.15s CPU      0.17s WALL (       8 calls)
     dynmat_us    :      0.14s CPU      0.16s WALL (       8 calls)
     d2ionq       :      0.00s CPU      0.00s WALL (       8 calls)

     dynmat_us    :      0.14s CPU      0.16s WALL (       8 calls)

     phqscf       :     43.64s CPU     46.34s WALL (       8 calls)
     solve_linter :     43.35s CPU     46.01s WALL (      17 calls)

     solve_linter :     43.35s CPU     46.01s WALL (      17 calls)
     dvqpsi_us    :      3.14s CPU      3.30s WALL (    2736 calls)
     sth_kernel   :     36.74s CPU     39.15s WALL (      82 calls)
     apply_dpot_b :      2.79s CPU      2.97s WALL (   10556 calls)
     ortho        :      0.29s CPU      0.31s WALL (   13292 calls)
     cgsolve      :     28.98s CPU     30.88s WALL (   13292 calls)
     incdrhoscf   :      3.45s CPU      3.67s WALL (   13292 calls)
     dv_of_drho   :      0.16s CPU      0.17s WALL (     108 calls)
     mix_pot      :      0.08s CPU      0.10s WALL (      82 calls)
     ef_shift     :      0.01s CPU      0.01s WALL (       3 calls)
     ef_shift_wfc :      0.00s CPU      0.00s WALL (       1 calls)
     localdos     :      0.01s CPU      0.01s WALL (       1 calls)
     psymdvscf    :      2.96s CPU      2.99s WALL (      82 calls)

     dvqpsi_us    :      3.14s CPU      3.30s WALL (    2736 calls)
     dvqpsi_us_on :      0.12s CPU      0.13s WALL (    2736 calls)

     cgsolve      :     28.98s CPU     30.88s WALL (   13292 calls)
     ch_psi       :     27.40s CPU     29.18s WALL (   87496 calls)

     ch_psi       :     27.40s CPU     29.18s WALL (   87496 calls)
     h_psi        :     49.01s CPU     51.53s WALL (  118486 calls)
     last         :      1.71s CPU      1.83s WALL (   87496 calls)

     h_psi        :     49.01s CPU     51.53s WALL (  118486 calls)
     add_vuspsi   :      0.45s CPU      0.48s WALL (  118486 calls)

     incdrhoscf   :      3.45s CPU      3.67s WALL (   13292 calls)


      General routines
     calbec       :      2.33s CPU      2.49s WALL (  226075 calls)
     fft          :      0.24s CPU      0.26s WALL (     606 calls)
     ffts         :      0.38s CPU      0.40s WALL (    3065 calls)
     fftw         :     52.19s CPU     54.93s WALL (  636800 calls)
     davcio       :      0.85s CPU      0.94s WALL (   72720 calls)
     write_rec    :      0.05s CPU      0.07s WALL (      99 calls)


     PHONON       :   1m15.59s CPU   1m19.48s WALL


   This run was terminated on:  17: 2:36   2May2024            

=------------------------------------------------------------------------------=
   JOB DONE.
=------------------------------------------------------------------------------=
