
     Program PWSCF v.7.1 starts on  3Jun2024 at 15:31: 8 

     This program is part of the open-source Quantum ESPRESSO suite
     for quantum simulation of materials; please cite
         "P. Giannozzi et al., J. Phys.:Condens. Matter 21 395502 (2009);
         "P. Giannozzi et al., J. Phys.:Condens. Matter 29 465901 (2017);
         "P. Giannozzi et al., J. Chem. Phys. 152 154105 (2020);
          URL http://www.quantum-espresso.org", 
     in publications or presentations arising from this work. More details at
     http://www.quantum-espresso.org/quote

     Parallel version (MPI & OpenMP), running on       6 processor cores
     Number of MPI processes:                 6
     Threads/MPI process:                     1

     MPI processes distributed on     1 nodes
     243602 MiB available memory on the printing compute node when the environment starts

     Waiting for input...
     Reading input from standard input

     Current dimensions of program PWSCF are:
     Max number of different atomic species (ntypx) = 10
     Max number of k-points (npk) =  40000
     Max angular momentum in pseudopotentials (lmaxx) =  4
     Message from routine setup:
     no reason to have ecutrho>4*ecutwfc

     R & G space division:  proc/nbgrp/npool/nimage =       6
     Subspace diagonalization in iterative solution of the eigenvalue problem:
     a serial algorithm will be used


     Parallelization info
     --------------------
     sticks:   dense  smooth     PW     G-vecs:    dense   smooth      PW
     Min         159      63     20                 3262      817     156
     Max         160      64     21                 3266      819     160
     Sum         955     379    121                19579     4909     941

     Using Slab Decomposition



     bravais-lattice index     =            2
     lattice parameter (alat)  =       7.4305  a.u.
     unit-cell volume          =     102.5647 (a.u.)^3
     number of atoms/cell      =            1
     number of atomic types    =            1
     number of electrons       =        11.00
     number of Kohn-Sham states=           10
     kinetic-energy cutoff     =      50.0000  Ry
     charge density cutoff     =     500.0000  Ry
     scf convergence threshold =      1.0E-11
     mixing beta               =       0.7000
     number of iterations used =            8  plain     mixing
     Exchange-correlation= PBE
                           (   1   4   3   4   0   0   0)

     celldm(1)=   7.430522  celldm(2)=   0.000000  celldm(3)=   0.000000
     celldm(4)=   0.000000  celldm(5)=   0.000000  celldm(6)=   0.000000

     crystal axes: (cart. coord. in units of alat)
               a(1) = (  -0.500000   0.000000   0.500000 )  
               a(2) = (   0.000000   0.500000   0.500000 )  
               a(3) = (  -0.500000   0.500000   0.000000 )  

     reciprocal axes: (cart. coord. in units 2 pi/alat)
               b(1) = ( -1.000000 -1.000000  1.000000 )  
               b(2) = (  1.000000  1.000000  1.000000 )  
               b(3) = ( -1.000000  1.000000 -1.000000 )  


     PseudoPot. # 1 for Al read from file:
     /home/bonacc_m/Downloads/sg15_oncv_upf_2020-02-06/Al_ONCV_PBE-1.2.upf
     MD5 check sum: 2d9e7bc02555220d62fad08c3c4858e7
     Pseudo is Norm-conserving, Zval = 11.0
     Generated using ONCVPSP code by D. R. Hamann
     Using radial grid of  602 points,  4 beta functions with: 
                l(1) =   0
                l(2) =   0
                l(3) =   1
                l(4) =   1

     atomic species   valence    mass     pseudopotential
        Al            11.00    26.98154     Al( 1.00)

     48 Sym. Ops., with inversion, found



   Cartesian axes

     site n.     atom                  positions (alat units)
         1           Al  tau(   1) = (   0.0000000   0.0000000   0.0000000  )

     number of k points=    72  Gaussian smearing, width (Ry)=  0.0100
                       cart. coord. in units 2pi/alat
        k(    1) = (   0.0000000   0.0000000   0.0000000), wk =   0.0011574
        k(    2) = (  -0.0833333   0.0833333  -0.0833333), wk =   0.0092593
        k(    3) = (  -0.1666667   0.1666667  -0.1666667), wk =   0.0092593
        k(    4) = (  -0.2500000   0.2500000  -0.2500000), wk =   0.0092593
        k(    5) = (  -0.3333333   0.3333333  -0.3333333), wk =   0.0092593
        k(    6) = (  -0.4166667   0.4166667  -0.4166667), wk =   0.0092593
        k(    7) = (   0.5000000  -0.5000000   0.5000000), wk =   0.0046296
        k(    8) = (   0.0000000   0.1666667   0.0000000), wk =   0.0069444
        k(    9) = (  -0.0833333   0.2500000  -0.0833333), wk =   0.0277778
        k(   10) = (  -0.1666667   0.3333333  -0.1666667), wk =   0.0277778
        k(   11) = (  -0.2500000   0.4166667  -0.2500000), wk =   0.0277778
        k(   12) = (  -0.3333333   0.5000000  -0.3333333), wk =   0.0277778
        k(   13) = (   0.5833333  -0.4166667   0.5833333), wk =   0.0277778
        k(   14) = (   0.5000000  -0.3333333   0.5000000), wk =   0.0277778
        k(   15) = (   0.4166667  -0.2500000   0.4166667), wk =   0.0277778
        k(   16) = (   0.3333333  -0.1666667   0.3333333), wk =   0.0277778
        k(   17) = (   0.2500000  -0.0833333   0.2500000), wk =   0.0277778
        k(   18) = (   0.1666667  -0.0000000   0.1666667), wk =   0.0138889
        k(   19) = (   0.0000000   0.3333333   0.0000000), wk =   0.0069444
        k(   20) = (  -0.0833333   0.4166667  -0.0833333), wk =   0.0277778
        k(   21) = (  -0.1666667   0.5000000  -0.1666667), wk =   0.0277778
        k(   22) = (  -0.2500000   0.5833333  -0.2500000), wk =   0.0277778
        k(   23) = (   0.6666667  -0.3333333   0.6666667), wk =   0.0277778
        k(   24) = (   0.5833333  -0.2500000   0.5833333), wk =   0.0277778
        k(   25) = (   0.5000000  -0.1666667   0.5000000), wk =   0.0277778
        k(   26) = (   0.4166667  -0.0833333   0.4166667), wk =   0.0277778
        k(   27) = (   0.3333333   0.0000000   0.3333333), wk =   0.0138889
        k(   28) = (   0.0000000   0.5000000   0.0000000), wk =   0.0069444
        k(   29) = (  -0.0833333   0.5833333  -0.0833333), wk =   0.0277778
        k(   30) = (  -0.1666667   0.6666667  -0.1666667), wk =   0.0277778
        k(   31) = (   0.7500000  -0.2500000   0.7500000), wk =   0.0277778
        k(   32) = (   0.6666667  -0.1666667   0.6666667), wk =   0.0277778
        k(   33) = (   0.5833333  -0.0833333   0.5833333), wk =   0.0277778
        k(   34) = (   0.5000000   0.0000000   0.5000000), wk =   0.0138889
        k(   35) = (   0.0000000   0.6666667   0.0000000), wk =   0.0069444
        k(   36) = (  -0.0833333   0.7500000  -0.0833333), wk =   0.0277778
        k(   37) = (   0.8333333  -0.1666667   0.8333333), wk =   0.0277778
        k(   38) = (   0.7500000  -0.0833333   0.7500000), wk =   0.0277778
        k(   39) = (   0.6666667  -0.0000000   0.6666667), wk =   0.0138889
        k(   40) = (   0.0000000   0.8333333   0.0000000), wk =   0.0069444
        k(   41) = (   0.9166667  -0.0833333   0.9166667), wk =   0.0277778
        k(   42) = (   0.8333333   0.0000000   0.8333333), wk =   0.0138889
        k(   43) = (   0.0000000  -1.0000000   0.0000000), wk =   0.0034722
        k(   44) = (  -0.1666667   0.3333333   0.0000000), wk =   0.0277778
        k(   45) = (  -0.2500000   0.4166667  -0.0833333), wk =   0.0555556
        k(   46) = (  -0.3333333   0.5000000  -0.1666667), wk =   0.0555556
        k(   47) = (   0.5833333  -0.4166667   0.7500000), wk =   0.0555556
        k(   48) = (   0.5000000  -0.3333333   0.6666667), wk =   0.0277778
        k(   49) = (  -0.1666667   0.5000000   0.0000000), wk =   0.0277778
        k(   50) = (  -0.2500000   0.5833333  -0.0833333), wk =   0.0555556
        k(   51) = (   0.6666667  -0.3333333   0.8333333), wk =   0.0555556
        k(   52) = (   0.5833333  -0.2500000   0.7500000), wk =   0.0555556
        k(   53) = (   0.5000000  -0.1666667   0.6666667), wk =   0.0555556
        k(   54) = (   0.4166667  -0.0833333   0.5833333), wk =   0.0555556
        k(   55) = (   0.3333333   0.0000000   0.5000000), wk =   0.0277778
        k(   56) = (  -0.1666667   0.6666667  -0.0000000), wk =   0.0277778
        k(   57) = (   0.7500000  -0.2500000   0.9166667), wk =   0.0555556
        k(   58) = (   0.6666667  -0.1666667   0.8333333), wk =   0.0555556
        k(   59) = (   0.5833333  -0.0833333   0.7500000), wk =   0.0555556
        k(   60) = (   0.5000000   0.0000000   0.6666667), wk =   0.0277778
        k(   61) = (   0.8333333  -0.1666667   1.0000000), wk =   0.0277778
        k(   62) = (   0.7500000  -0.0833333   0.9166667), wk =   0.0555556
        k(   63) = (   0.6666667   0.0000000   0.8333333), wk =   0.0277778
        k(   64) = (  -0.1666667  -1.0000000  -0.0000000), wk =   0.0138889
        k(   65) = (   0.6666667  -0.3333333   1.0000000), wk =   0.0277778
        k(   66) = (   0.5833333  -0.2500000   0.9166667), wk =   0.0555556
        k(   67) = (   0.5000000  -0.1666667   0.8333333), wk =   0.0277778
        k(   68) = (   0.6666667  -0.1666667   1.0000000), wk =   0.0277778
        k(   69) = (   0.5833333  -0.0833333   0.9166667), wk =   0.0555556
        k(   70) = (   0.5000000   0.0000000   0.8333333), wk =   0.0277778
        k(   71) = (  -0.3333333  -1.0000000   0.0000000), wk =   0.0138889
        k(   72) = (  -0.5000000  -1.0000000   0.0000000), wk =   0.0069444

     Dense  grid:    19579 G-vectors     FFT dimensions: (  40,  40,  40)

     Smooth grid:     4909 G-vectors     FFT dimensions: (  24,  24,  24)

     Estimated max dynamical RAM per process >       3.85 MB

     Estimated total dynamical RAM >      23.10 MB

     Initial potential from superposition of free atoms

     starting charge      10.9185, renormalised to      11.0000
     Starting wfcs are random

     total cpu time spent up to now is        0.2 secs

     Self-consistent Calculation

     iteration #  1     ecut=    50.00 Ry     beta= 0.70
     Davidson diagonalization with overlap
     ethr =  1.00E-02,  avg # of iterations =  7.4

     Threshold (ethr) on eigenvalues was too large:
     Diagonalizing with lowered threshold

     Davidson diagonalization with overlap
     ethr =  1.75E-04,  avg # of iterations =  2.6

     total cpu time spent up to now is        1.0 secs

     total energy              =    -138.39973910 Ry
     estimated scf accuracy    <       0.01696256 Ry

     iteration #  2     ecut=    50.00 Ry     beta= 0.70
     Davidson diagonalization with overlap
     ethr =  1.54E-04,  avg # of iterations =  1.8

     total cpu time spent up to now is        1.1 secs

     total energy              =    -138.40145345 Ry
     estimated scf accuracy    <       0.00056103 Ry

     iteration #  3     ecut=    50.00 Ry     beta= 0.70
     Davidson diagonalization with overlap
     ethr =  5.10E-06,  avg # of iterations =  2.9

     total cpu time spent up to now is        1.4 secs

     total energy              =    -138.40147140 Ry
     estimated scf accuracy    <       0.00002120 Ry

     iteration #  4     ecut=    50.00 Ry     beta= 0.70
     Davidson diagonalization with overlap
     ethr =  1.93E-07,  avg # of iterations =  1.5

     total cpu time spent up to now is        1.6 secs

     total energy              =    -138.40147239 Ry
     estimated scf accuracy    <       0.00000008 Ry

     iteration #  5     ecut=    50.00 Ry     beta= 0.70
     Davidson diagonalization with overlap
     ethr =  7.32E-10,  avg # of iterations =  2.0

     total cpu time spent up to now is        1.8 secs

     total energy              =    -138.40147241 Ry
     estimated scf accuracy    <          6.1E-10 Ry

     iteration #  6     ecut=    50.00 Ry     beta= 0.70
     Davidson diagonalization with overlap
     ethr =  5.53E-12,  avg # of iterations =  2.1

     total cpu time spent up to now is        2.0 secs

     total energy              =    -138.40147241 Ry
     estimated scf accuracy    <          2.2E-11 Ry

     iteration #  7     ecut=    50.00 Ry     beta= 0.70
     Davidson diagonalization with overlap
     ethr =  1.98E-13,  avg # of iterations =  2.0

     total cpu time spent up to now is        2.3 secs

     End of self-consistent calculation

          k = 0.0000 0.0000 0.0000 (   609 PWs)   bands (ev):

   -91.2112 -52.7292 -52.7292 -52.7292   0.3744  25.3360  25.3360  25.3361
    27.3431  27.3431

          k =-0.0833 0.0833-0.0833 (   606 PWs)   bands (ev):

   -91.2085 -52.7313 -52.7295 -52.7295   0.5740  22.6435  24.8234  24.8234
    27.8313  28.1775

          k =-0.1667 0.1667-0.1667 (   597 PWs)   bands (ev):

   -91.2024 -52.7371 -52.7304 -52.7304   1.1709  19.0986  24.1282  24.1282
    27.5599  29.3114

          k =-0.2500 0.2500-0.2500 (   607 PWs)   bands (ev):

   -91.2074 -52.7450 -52.7316 -52.7316   2.1588  15.7252  23.6762  23.6762
    27.2817  27.7922

          k =-0.3333 0.3333-0.3333 (   613 PWs)   bands (ev):

   -91.2100 -52.7529 -52.7328 -52.7328   3.5289  12.6287  23.5318  23.5318
    26.2999  26.2999

          k =-0.4167 0.4167-0.4167 (   604 PWs)   bands (ev):

   -91.2037 -52.7587 -52.7337 -52.7337   5.2684   9.8489  23.7070  23.7070
    25.1250  25.1250

          k = 0.5000-0.5000 0.5000 (   610 PWs)   bands (ev):

   -91.2063 -52.7608 -52.7340 -52.7340   7.1610   7.6086  24.0710  24.0710
    24.4256  24.4256

          k = 0.0000 0.1667 0.0000 (   605 PWs)   bands (ev):

   -91.2078 -52.7312 -52.7300 -52.7300   0.6405  23.6500  23.6500  23.7693
    26.7308  29.4375

          k =-0.0833 0.2500-0.0833 (   599 PWs)   bands (ev):

   -91.2037 -52.7356 -52.7310 -52.7306   1.1047  20.3596  22.7375  24.0002
    27.1374  27.6567

          k =-0.1667 0.3333-0.1667 (   605 PWs)   bands (ev):

   -91.2061 -52.7426 -52.7323 -52.7317   1.9617  16.9569  22.1415  23.6769
    25.6931  28.8391

          k =-0.2500 0.4167-0.2500 (   606 PWs)   bands (ev):

   -91.2059 -52.7504 -52.7336 -52.7330   3.2041  13.7802  21.8745  23.3800
    24.1410  28.7245

          k =-0.3333 0.5000-0.3333 (   608 PWs)   bands (ev):

   -91.2058 -52.7567 -52.7344 -52.7344   4.8199  10.8999  21.9420  22.5617
    23.7340  27.4557

          k = 0.5833-0.4167 0.5833 (   610 PWs)   bands (ev):

   -91.2058 -52.7599 -52.7353 -52.7345   6.7786   8.3643  21.6190  22.3471
    24.1273  26.4968

          k = 0.5000-0.3333 0.5000 (   608 PWs)   bands (ev):

   -91.2049 -52.7592 -52.7356 -52.7340   6.0944   9.1634  20.9888  23.0924
    24.8969  25.8635

          k = 0.4167-0.2500 0.4167 (   608 PWs)   bands (ev):

   -91.2063 -52.7548 -52.7351 -52.7330   4.2408  11.8220  20.7019  24.1793
    25.5550  26.0045

          k = 0.3333-0.1667 0.3333 (   611 PWs)   bands (ev):

   -91.2089 -52.7478 -52.7340 -52.7317   2.7477  14.7995  20.7663  25.5479
    25.6117  27.4108

          k = 0.2500-0.0833 0.2500 (   606 PWs)   bands (ev):

   -91.2071 -52.7402 -52.7325 -52.7305   1.6327  18.0338  21.2008  25.8074
    27.3129  28.5340

          k = 0.1667-0.0000 0.1667 (   596 PWs)   bands (ev):

   -91.2023 -52.7342 -52.7309 -52.7297   0.9061  21.1404  22.2824  25.8558
    27.6949  28.4764

          k = 0.0000 0.3333 0.0000 (   597 PWs)   bands (ev):

   -91.2021 -52.7368 -52.7322 -52.7322   1.4351  21.5969  21.6764  21.6764
    25.0836  25.5941

          k =-0.0833 0.4167-0.0833 (   605 PWs)   bands (ev):

   -91.2055 -52.7420 -52.7337 -52.7335   2.1586  18.4412  20.9519  22.1794
    23.1998  25.7720

          k =-0.1667 0.5000-0.1667 (   608 PWs)   bands (ev):

   -91.2065 -52.7485 -52.7350 -52.7350   3.2688  15.2518  20.5649  21.1952
    22.3723  27.6066

          k =-0.2500 0.5833-0.2500 (   615 PWs)   bands (ev):

   -91.2089 -52.7542 -52.7369 -52.7358   4.7549  12.3000  19.7865  20.5160
    22.3698  29.9883

          k = 0.6667-0.3333 0.6667 (   606 PWs)   bands (ev):

   -91.2025 -52.7577 -52.7386 -52.7359   6.5986   9.6583  18.6795  20.8067
    22.7134  29.0710

          k = 0.5833-0.2500 0.5833 (   612 PWs)   bands (ev):

   -91.2057 -52.7580 -52.7397 -52.7352   7.2803   8.8579  17.9212  21.4383
    23.4097  28.3335

          k = 0.5000-0.1667 0.5000 (   614 PWs)   bands (ev):

   -91.2077 -52.7551 -52.7396 -52.7340   5.3322  11.3615  17.5342  22.4127
    24.4537  27.9086

          k = 0.4167-0.0833 0.4167 (   611 PWs)   bands (ev):

   -91.2076 -52.7502 -52.7383 -52.7326   3.7233  14.1514  17.5679  23.7287
    25.8213  27.7547

          k = 0.3333 0.0000 0.3333 (   616 PWs)   bands (ev):

   -91.2116 -52.7447 -52.7357 -52.7313   2.4860  16.7650  18.4326  25.3749
    27.4089  27.4545

          k = 0.0000 0.5000 0.0000 (   592 PWs)   bands (ev):

   -91.1969 -52.7444 -52.7353 -52.7353   2.7478  19.8026  20.1067  20.1067
    20.7809  24.1023

          k =-0.0833 0.5833-0.0833 (   609 PWs)   bands (ev):

   -91.2059 -52.7490 -52.7370 -52.7367   3.7225  16.9687  18.8290  19.6017
    20.8571  24.5487

          k =-0.1667 0.6667-0.1667 (   611 PWs)   bands (ev):

   -91.2057 -52.7532 -52.7394 -52.7376   5.0740  14.0126  17.2365  19.4370
    21.0868  26.5929

          k = 0.7500-0.2500 0.7500 (   616 PWs)   bands (ev):

   -91.2072 -52.7556 -52.7422 -52.7377   6.7851  11.3032  15.9872  19.6118
    21.3957  29.2733

          k = 0.6667-0.1667 0.6667 (   615 PWs)   bands (ev):

   -91.2059 -52.7555 -52.7446 -52.7370   8.6282   9.1091  15.1102  20.1272
    22.0114  31.1350

          k = 0.5833-0.0833 0.5833 (   616 PWs)   bands (ev):

   -91.2071 -52.7537 -52.7453 -52.7357   6.7922  11.2046  14.6675  20.9847
    22.9708  30.6008

          k = 0.5000 0.0000 0.5000 (   616 PWs)   bands (ev):

   -91.2087 -52.7519 -52.7428 -52.7340   5.0763  13.3400  15.1173  22.1857
    24.2598  29.9733

          k = 0.0000 0.6667 0.0000 (   624 PWs)   bands (ev):

   -91.2131 -52.7519 -52.7384 -52.7384   4.5601  16.7074  18.4986  18.9812
    18.9812  22.9870

          k =-0.0833 0.7500-0.0833 (   615 PWs)   bands (ev):

   -91.2070 -52.7549 -52.7402 -52.7394   5.7720  14.9122  16.0587  18.7015
    19.8493  23.6615

          k = 0.8333-0.1667 0.8333 (   617 PWs)   bands (ev):

   -91.2071 -52.7561 -52.7432 -52.7396   7.3370  13.0878  13.8064  18.7611
    20.3240  25.9491

          k = 0.7500-0.0833 0.7500 (   618 PWs)   bands (ev):

   -91.2072 -52.7546 -52.7470 -52.7389   9.1843  10.7687  12.7214  19.1604
    20.8941  28.8809

          k = 0.6667-0.0000 0.6667 (   606 PWs)   bands (ev):

   -91.2006 -52.7508 -52.7507 -52.7374   8.5998  10.9027  12.6428  19.9011
    21.7690  32.0140

          k = 0.0000 0.8333 0.0000 (   620 PWs)   bands (ev):

   -91.2096 -52.7574 -52.7406 -52.7406   6.8343  13.0683  17.7110  18.3070
    18.3070  22.2766

          k = 0.9167-0.0833 0.9167 (   618 PWs)   bands (ev):

   -91.2076 -52.7583 -52.7421 -52.7409   8.2112  11.5927  15.5390  18.2521
    19.3466  23.2001

          k = 0.8333 0.0000 0.8333 (   618 PWs)   bands (ev):

   -91.2072 -52.7570 -52.7448 -52.7403   9.4468  10.9507  13.1326  18.5362
    20.0677  25.7295

          k = 0.0000-1.0000 0.0000 (   620 PWs)   bands (ev):

   -91.2083 -52.7593 -52.7414 -52.7414   8.9631  10.4838  17.4479  18.0826
    18.0826  22.0329

          k =-0.1667 0.3333 0.0000 (   599 PWs)   bands (ev):

   -91.2029 -52.7397 -52.7332 -52.7313   1.6987  18.9649  20.3625  24.7127
    25.4910  26.9514

          k =-0.2500 0.4167-0.0833 (   606 PWs)   bands (ev):

   -91.2059 -52.7459 -52.7353 -52.7323   2.6824  16.0977  19.3944  23.5949
    24.9898  28.2932

          k =-0.3333 0.5000-0.1667 (   612 PWs)   bands (ev):

   -91.2080 -52.7523 -52.7369 -52.7336   4.0467  13.0841  19.1511  22.0320
    25.0073  27.9105

          k = 0.5833-0.4167 0.7500 (   607 PWs)   bands (ev):

   -91.2038 -52.7571 -52.7378 -52.7348   5.7782  10.3346  19.2828  20.8297
    25.2503  26.7240

          k = 0.5000-0.3333 0.6667 (   606 PWs)   bands (ev):

   -91.2026 -52.7589 -52.7381 -52.7353   7.6509   8.1199  19.5643  20.1918
    25.6920  25.9562

          k =-0.1667 0.5000 0.0000 (   605 PWs)   bands (ev):

   -91.2046 -52.7462 -52.7363 -52.7343   3.0085  17.2552  18.7306  21.1417
    23.1281  25.6964

          k =-0.2500 0.5833-0.0833 (   612 PWs)   bands (ev):

   -91.2072 -52.7510 -52.7387 -52.7355   4.2398  14.6263  17.9147  19.4851
    23.6775  27.2378

          k = 0.6667-0.3333 0.8333 (   615 PWs)   bands (ev):

   -91.2074 -52.7548 -52.7407 -52.7366   5.8403  11.8464  17.6189  18.4064
    23.9566  29.2397

          k = 0.5833-0.2500 0.7500 (   612 PWs)   bands (ev):

   -91.2047 -52.7565 -52.7422 -52.7369   7.7738   9.3553  16.8934  18.5198
    24.4521  28.4898

          k = 0.5000-0.1667 0.6667 (   613 PWs)   bands (ev):

   -91.2055 -52.7558 -52.7428 -52.7361   7.1032  10.1258  16.3041  19.2426
    25.2551  27.8222

          k = 0.4167-0.0833 0.5833 (   613 PWs)   bands (ev):

   -91.2067 -52.7530 -52.7418 -52.7348   5.2680  12.6778  16.1152  20.3528
    26.3613  27.3962

          k = 0.3333 0.0000 0.5000 (   616 PWs)   bands (ev):

   -91.2100 -52.7495 -52.7391 -52.7334   3.7878  15.0517  16.7830  21.8155
    26.7077  27.6775

          k =-0.1667 0.6667-0.0000 (   614 PWs)   bands (ev):

   -91.2074 -52.7523 -52.7395 -52.7378   4.8173  16.0287  16.7722  17.8650
    21.9419  24.6599

          k = 0.7500-0.2500 0.9167 (   614 PWs)   bands (ev):

   -91.2058 -52.7546 -52.7421 -52.7388   6.2802  13.6186  15.4264  17.1994
    22.7398  26.4265

          k = 0.6667-0.1667 0.8333 (   618 PWs)   bands (ev):

   -91.2073 -52.7548 -52.7452 -52.7389   8.0833  11.0921  14.3495  17.3730
    23.2671  29.1268

          k = 0.5833-0.0833 0.7500 (   616 PWs)   bands (ev):

   -91.2061 -52.7531 -52.7478 -52.7380   8.7703  10.2344  13.6660  17.9949
    24.0069  30.6240

          k = 0.5000 0.0000 0.6667 (   608 PWs)   bands (ev):

   -91.2022 -52.7525 -52.7466 -52.7364   6.8547  12.1198  13.8709  18.9966
    25.0476  29.6657

          k = 0.8333-0.1667 1.0000 (   615 PWs)   bands (ev):

   -91.2061 -52.7566 -52.7418 -52.7405   7.0861  13.2931  15.2914  17.0021
    21.2226  23.9958

          k = 0.7500-0.0833 0.9167 (   620 PWs)   bands (ev):

   -91.2083 -52.7562 -52.7445 -52.7406   8.7046  12.0227  13.2541  16.6597
    22.2619  25.9997

          k = 0.6667 0.0000 0.8333 (   616 PWs)   bands (ev):

   -91.2059 -52.7537 -52.7480 -52.7396  10.1740  10.6948  11.9693  17.1168
    23.0323  28.9478

          k =-0.1667-1.0000-0.0000 (   620 PWs)   bands (ev):

   -91.2086 -52.7581 -52.7426 -52.7415   9.2048  10.7310  15.0454  16.7514
    20.9819  23.7688

          k = 0.6667-0.3333 1.0000 (   624 PWs)   bands (ev):

   -91.2119 -52.7529 -52.7425 -52.7368   5.5854  13.8281  15.5014  17.8947
    25.5992  27.6332

          k = 0.5833-0.2500 0.9167 (   621 PWs)   bands (ev):

   -91.2091 -52.7538 -52.7453 -52.7381   7.2894  11.6893  15.0254  16.6951
    26.5217  28.1054

          k = 0.5000-0.1667 0.8333 (   620 PWs)   bands (ev):

   -91.2083 -52.7540 -52.7463 -52.7386   9.1155   9.5868  15.1541  16.1355
    27.0201  27.4491

          k = 0.6667-0.1667 1.0000 (   615 PWs)   bands (ev):

   -91.2053 -52.7545 -52.7450 -52.7401   7.8378  13.0947  13.8051  15.2467
    24.8967  27.1019

          k = 0.5833-0.0833 0.9167 (   619 PWs)   bands (ev):

   -91.2075 -52.7528 -52.7480 -52.7406   9.6771  11.1726  13.0460  14.9145
    26.0820  29.2736

          k = 0.5000 0.0000 0.8333 (   617 PWs)   bands (ev):

   -91.2063 -52.7514 -52.7494 -52.7397   9.0748  11.3889  13.0383  15.5471
    26.9950  29.0253

          k =-0.3333-1.0000 0.0000 (   618 PWs)   bands (ev):

   -91.2070 -52.7549 -52.7459 -52.7415   9.9314  11.4333  12.8502  14.8220
    24.6593  26.9056

          k =-0.5000-1.0000 0.0000 (   616 PWs)   bands (ev):

   -91.2061 -52.7504 -52.7504 -52.7416  11.1454  11.1454  12.1266  13.6857
    28.7991  28.7991

     the Fermi energy is    11.9829 ev

!    total energy              =    -138.40147241 Ry
     estimated scf accuracy    <          2.0E-12 Ry
     smearing contrib. (-TS)   =      -0.00033478 Ry
     internal energy E=F+TS    =    -138.40113763 Ry

     The total energy is F=E-TS. E is the sum of the following terms:
     one-electron contribution =     -81.47374765 Ry
     hartree contribution      =      33.43799418 Ry
     xc contribution           =     -15.70463824 Ry
     ewald contribution        =     -74.66074593 Ry

     convergence has been achieved in   7 iterations

     Writing all to output data dir ./tmp/al.save/

     init_run     :      0.12s CPU      0.12s WALL (       1 calls)
     electrons    :      2.02s CPU      2.12s WALL (       1 calls)

     Called by init_run:
     wfcinit      :      0.07s CPU      0.07s WALL (       1 calls)
     potinit      :      0.02s CPU      0.02s WALL (       1 calls)
     hinit0       :      0.01s CPU      0.01s WALL (       1 calls)

     Called by electrons:
     c_bands      :      1.78s CPU      1.86s WALL (       8 calls)
     sum_band     :      0.20s CPU      0.21s WALL (       8 calls)
     v_of_rho     :      0.03s CPU      0.04s WALL (       8 calls)
     mix_rho      :      0.00s CPU      0.00s WALL (       8 calls)

     Called by c_bands:
     init_us_2    :      0.02s CPU      0.02s WALL (    1224 calls)
     init_us_2:cp :      0.02s CPU      0.02s WALL (    1224 calls)
     cegterg      :      1.75s CPU      1.83s WALL (     576 calls)

     Called by *egterg:
     cdiaghg      :      0.18s CPU      0.19s WALL (    2111 calls)
     h_psi        :      1.32s CPU      1.38s WALL (    2255 calls)
     g_psi        :      0.01s CPU      0.01s WALL (    1607 calls)

     Called by h_psi:
     h_psi:calbec :      0.05s CPU      0.05s WALL (    2255 calls)
     vloc_psi     :      1.24s CPU      1.29s WALL (    2255 calls)
     add_vuspsi   :      0.03s CPU      0.03s WALL (    2255 calls)

     General routines
     calbec       :      0.05s CPU      0.05s WALL (    2255 calls)
     fft          :      0.02s CPU      0.03s WALL (      94 calls)
     ffts         :      0.00s CPU      0.00s WALL (      16 calls)
     fftw         :      1.33s CPU      1.38s WALL (   39482 calls)
     interpolate  :      0.00s CPU      0.00s WALL (       8 calls)

     Parallel routines

     PWSCF        :      2.20s CPU      2.31s WALL


   This run was terminated on:  15:31:10   3Jun2024            

=------------------------------------------------------------------------------=
   JOB DONE.
=------------------------------------------------------------------------------=
