
     Program PWSCF v.5.1 starts on  6Jan2017 at  2:44:34 

     This program is part of the open-source Quantum ESPRESSO suite
     for quantum simulation of materials; please cite
         "P. Giannozzi et al., J. Phys.:Condens. Matter 21 395502 (2009);
          URL http://www.quantum-espresso.org", 
     in publications or presentations arising from this work. More details at
     http://www.quantum-espresso.org/quote

     Parallel version (MPI), running on    72 processors
     K-points division:     npool     =      12
     R & G space division:  proc/nbgrp/npool/nimage =       6
     Reading input from aiida.in

     Current dimensions of program PWSCF are:
     Max number of different atomic species (ntypx) = 10
     Max number of k-points (npk) =  40000
     Max angular momentum in pseudopotentials (lmaxx) =  3

     Atomic positions and unit cell read from directory:
     ./out/aiida.save/
 

     Subspace diagonalization in iterative solution of the eigenvalue problem:
     a serial algorithm will be used

 
     Parallelization info
     --------------------
     sticks:   dense  smooth     PW     G-vecs:    dense   smooth      PW
     Min          99      58     18                14379     6392    1112
     Max         100      59     19                14404     6419    1137
     Sum         595     349    109                86333    38421    6717
 
 ----2D----2D----2D----2D----2D----2D
 THE CODE IS RUNNING WITH 2D CUTOFF
 ----2D----2D----2D----2D----2D----2D


     bravais-lattice index     =            0
     lattice parameter (alat)  =       6.0248  a.u.
     unit-cell volume          =    1375.4727 (a.u.)^3
     number of atoms/cell      =            3
     number of atomic types    =            2
     number of electrons       =        26.00
     number of Kohn-Sham states=           17
     kinetic-energy cutoff     =      35.0000  Ry
     charge density cutoff     =     240.0000  Ry
     Exchange-correlation      = SLA  PW   PBE  PBE ( 1  4  3  4 0 0)

     celldm(1)=   6.024786  celldm(2)=   0.000000  celldm(3)=   0.000000
     celldm(4)=   0.000000  celldm(5)=   0.000000  celldm(6)=   0.000000

     crystal axes: (cart. coord. in units of alat)
               a(1) = (   1.000000   0.000000   0.000000 )  
               a(2) = (  -0.500000   0.866025   0.000000 )  
               a(3) = (   0.000000   0.000000   7.262672 )  

     reciprocal axes: (cart. coord. in units 2 pi/alat)
               b(1) = (  1.000000  0.577350  0.000000 )  
               b(2) = (  0.000000  1.154701  0.000000 )  
               b(3) = (  0.000000  0.000000  0.137690 )  


     PseudoPot. # 1 for Mo read from file:
     ./pseudo/Mo_ONCV_PBE-1.0.upf
     MD5 check sum: 4ad9145758a1d467f70cc26f028cba6c
     Pseudo is Norm-conserving, Zval = 14.0
     Generated using ONCVPSP code by D. R. Hamann
     Using radial grid of  602 points,  6 beta functions with: 
                l(1) =   0
                l(2) =   0
                l(3) =   1
                l(4) =   1
                l(5) =   2
                l(6) =   2

     PseudoPot. # 2 for S  read from file:
     ./pseudo/s_pbe_v1.2.uspp.F.UPF
     MD5 check sum: 2e30864c2a0cf3bb4a9e1f7a4cfc7cf0
     Pseudo is Ultrasoft + core correction, Zval =  6.0
     Generated by new atomic code, or converted to UPF format
     Using radial grid of  907 points,  6 beta functions with: 
                l(1) =   0
                l(2) =   0
                l(3) =   1
                l(4) =   1
                l(5) =   2
                l(6) =   2
     Q(r) pseudized with  8 coefficients,  rinner =    1.300   1.300   1.300
                                                       1.300   1.300

     atomic species   valence    mass     pseudopotential
        Mo            14.00    95.94000     Mo( 1.00)
        S              6.00    32.06600     S ( 1.00)

     12 Sym. Ops. (no inversion) found


                                    s                        frac. trans.

      isym =  1     identity                                     

 cryst.   s( 1) = (     1          0          0      )
                  (     0          1          0      )
                  (     0          0          1      )

 cart.    s( 1) = (  1.0000000  0.0000000  0.0000000 )
                  (  0.0000000  1.0000000  0.0000000 )
                  (  0.0000000  0.0000000  1.0000000 )


      isym =  2     180 deg rotation - cart. axis [0,1,0]        

 cryst.   s( 2) = (    -1          0          0      )
                  (     1          1          0      )
                  (     0          0         -1      )

 cart.    s( 2) = ( -1.0000000  0.0000000  0.0000000 )
                  (  0.0000000  1.0000000  0.0000000 )
                  (  0.0000000  0.0000000 -1.0000000 )


      isym =  3     120 deg rotation - cryst. axis [0,0,1]       

 cryst.   s( 3) = (     0          1          0      )
                  (    -1         -1          0      )
                  (     0          0          1      )

 cart.    s( 3) = ( -0.5000000 -0.8660254  0.0000000 )
                  (  0.8660254 -0.5000000  0.0000000 )
                  (  0.0000000  0.0000000  1.0000000 )


      isym =  4     120 deg rotation - cryst. axis [0,0,-1]      

 cryst.   s( 4) = (    -1         -1          0      )
                  (     1          0          0      )
                  (     0          0          1      )

 cart.    s( 4) = ( -0.5000000  0.8660254  0.0000000 )
                  ( -0.8660254 -0.5000000  0.0000000 )
                  (  0.0000000  0.0000000  1.0000000 )


      isym =  5     180 deg rotation - cryst. axis [1,-1,0]      

 cryst.   s( 5) = (     0         -1          0      )
                  (    -1          0          0      )
                  (     0          0         -1      )

 cart.    s( 5) = (  0.5000000 -0.8660254  0.0000000 )
                  ( -0.8660254 -0.5000000  0.0000000 )
                  (  0.0000000  0.0000000 -1.0000000 )


      isym =  6     180 deg rotation - cryst. axis [2,1,0]       

 cryst.   s( 6) = (     1          1          0      )
                  (     0         -1          0      )
                  (     0          0         -1      )

 cart.    s( 6) = (  0.5000000  0.8660254  0.0000000 )
                  (  0.8660254 -0.5000000  0.0000000 )
                  (  0.0000000  0.0000000 -1.0000000 )


      isym =  7     inv. 180 deg rotation - cart. axis [0,0,1]   

 cryst.   s( 7) = (     1          0          0      )
                  (     0          1          0      )
                  (     0          0         -1      )

 cart.    s( 7) = (  1.0000000  0.0000000  0.0000000 )
                  (  0.0000000  1.0000000  0.0000000 )
                  (  0.0000000  0.0000000 -1.0000000 )


      isym =  8     inv. 180 deg rotation - cart. axis [1,0,0]   

 cryst.   s( 8) = (    -1          0          0      )
                  (     1          1          0      )
                  (     0          0          1      )

 cart.    s( 8) = ( -1.0000000  0.0000000  0.0000000 )
                  (  0.0000000  1.0000000  0.0000000 )
                  (  0.0000000  0.0000000  1.0000000 )


      isym =  9     inv.  60 deg rotation - cryst. axis [0,0,1]  

 cryst.   s( 9) = (    -1         -1          0      )
                  (     1          0          0      )
                  (     0          0         -1      )

 cart.    s( 9) = ( -0.5000000  0.8660254  0.0000000 )
                  ( -0.8660254 -0.5000000  0.0000000 )
                  (  0.0000000  0.0000000 -1.0000000 )


      isym = 10     inv.  60 deg rotation - cryst. axis [0,0,-1] 

 cryst.   s(10) = (     0          1          0      )
                  (    -1         -1          0      )
                  (     0          0         -1      )

 cart.    s(10) = ( -0.5000000 -0.8660254  0.0000000 )
                  (  0.8660254 -0.5000000  0.0000000 )
                  (  0.0000000  0.0000000 -1.0000000 )


      isym = 11     inv. 180 deg rotation - cryst. axis [0,1,0]  

 cryst.   s(11) = (     1          1          0      )
                  (     0         -1          0      )
                  (     0          0          1      )

 cart.    s(11) = (  0.5000000  0.8660254  0.0000000 )
                  (  0.8660254 -0.5000000  0.0000000 )
                  (  0.0000000  0.0000000  1.0000000 )


      isym = 12     inv. 180 deg rotation - cryst. axis [1,1,0]  

 cryst.   s(12) = (     0         -1          0      )
                  (    -1          0          0      )
                  (     0          0          1      )

 cart.    s(12) = (  0.5000000 -0.8660254  0.0000000 )
                  ( -0.8660254 -0.5000000  0.0000000 )
                  (  0.0000000  0.0000000  1.0000000 )


   Cartesian axes

     site n.     atom                  positions (alat units)
         1           Mo  tau(   1) = (   0.0000000   0.5773503   3.6313360  )
         2           S   tau(   2) = (   0.5000000   0.2886751   3.1424912  )
         3           S   tau(   3) = (   0.5000000   0.2886751   4.1201808  )

   Crystallographic axes

     site n.     atom                  positions (cryst. coord.)
         1           Mo  tau(   1) = (  0.3333333  0.6666667  0.5000000  )
         2           S   tau(   2) = (  0.6666667  0.3333333  0.4326908  )
         3           S   tau(   3) = (  0.6666667  0.3333333  0.5673092  )

     number of k points=   132  Marzari-Vanderbilt smearing, width (Ry)=  0.0200
                       cart. coord. in units 2pi/alat
        k(    1) = (   0.0000000   0.0000000   0.0000000), wk =   0.0151515
        k(    2) = (   0.0102041   0.0058913   0.0000000), wk =   0.0151515
        k(    3) = (   0.0204082   0.0117827   0.0000000), wk =   0.0151515
        k(    4) = (   0.0306122   0.0176740   0.0000000), wk =   0.0151515
        k(    5) = (   0.0408163   0.0235653   0.0000000), wk =   0.0151515
        k(    6) = (   0.0510204   0.0294566   0.0000000), wk =   0.0151515
        k(    7) = (   0.0612245   0.0353480   0.0000000), wk =   0.0151515
        k(    8) = (   0.0714286   0.0412393   0.0000000), wk =   0.0151515
        k(    9) = (   0.0816327   0.0471306   0.0000000), wk =   0.0151515
        k(   10) = (   0.0918367   0.0530220   0.0000000), wk =   0.0151515
        k(   11) = (   0.1020408   0.0589133   0.0000000), wk =   0.0151515
        k(   12) = (   0.1122449   0.0648046   0.0000000), wk =   0.0151515
        k(   13) = (   0.1224490   0.0706960   0.0000000), wk =   0.0151515
        k(   14) = (   0.1326531   0.0765873   0.0000000), wk =   0.0151515
        k(   15) = (   0.1428571   0.0824786   0.0000000), wk =   0.0151515
        k(   16) = (   0.1530612   0.0883699   0.0000000), wk =   0.0151515
        k(   17) = (   0.1632653   0.0942613   0.0000000), wk =   0.0151515
        k(   18) = (   0.1734694   0.1001526   0.0000000), wk =   0.0151515
        k(   19) = (   0.1836735   0.1060439   0.0000000), wk =   0.0151515
        k(   20) = (   0.1938776   0.1119353   0.0000000), wk =   0.0151515
        k(   21) = (   0.2040816   0.1178266   0.0000000), wk =   0.0151515
        k(   22) = (   0.2142857   0.1237179   0.0000000), wk =   0.0151515
        k(   23) = (   0.2244898   0.1296092   0.0000000), wk =   0.0151515
        k(   24) = (   0.2346939   0.1355006   0.0000000), wk =   0.0151515
        k(   25) = (   0.2448980   0.1413919   0.0000000), wk =   0.0151515
        k(   26) = (   0.2551020   0.1472832   0.0000000), wk =   0.0151515
        k(   27) = (   0.2653061   0.1531746   0.0000000), wk =   0.0151515
        k(   28) = (   0.2755102   0.1590659   0.0000000), wk =   0.0151515
        k(   29) = (   0.2857143   0.1649572   0.0000000), wk =   0.0151515
        k(   30) = (   0.2959184   0.1708485   0.0000000), wk =   0.0151515
        k(   31) = (   0.3061224   0.1767399   0.0000000), wk =   0.0151515
        k(   32) = (   0.3163265   0.1826312   0.0000000), wk =   0.0151515
        k(   33) = (   0.3265306   0.1885225   0.0000000), wk =   0.0151515
        k(   34) = (   0.3367347   0.1944139   0.0000000), wk =   0.0151515
        k(   35) = (   0.3469388   0.2003052   0.0000000), wk =   0.0151515
        k(   36) = (   0.3571429   0.2061965   0.0000000), wk =   0.0151515
        k(   37) = (   0.3673469   0.2120879   0.0000000), wk =   0.0151515
        k(   38) = (   0.3775510   0.2179792   0.0000000), wk =   0.0151515
        k(   39) = (   0.3877551   0.2238705   0.0000000), wk =   0.0151515
        k(   40) = (   0.3979592   0.2297618   0.0000000), wk =   0.0151515
        k(   41) = (   0.4081633   0.2356532   0.0000000), wk =   0.0151515
        k(   42) = (   0.4183673   0.2415445   0.0000000), wk =   0.0151515
        k(   43) = (   0.4285714   0.2474358   0.0000000), wk =   0.0151515
        k(   44) = (   0.4387755   0.2533272   0.0000000), wk =   0.0151515
        k(   45) = (   0.4489796   0.2592185   0.0000000), wk =   0.0151515
        k(   46) = (   0.4591837   0.2651098   0.0000000), wk =   0.0151515
        k(   47) = (   0.4693878   0.2710011   0.0000000), wk =   0.0151515
        k(   48) = (   0.4795918   0.2768925   0.0000000), wk =   0.0151515
        k(   49) = (   0.4897959   0.2827838   0.0000000), wk =   0.0151515
        k(   50) = (   0.5000000   0.2886751   0.0000000), wk =   0.0151515
        k(   51) = (   0.4953704   0.2966939   0.0000000), wk =   0.0151515
        k(   52) = (   0.4907407   0.3047126   0.0000000), wk =   0.0151515
        k(   53) = (   0.4861111   0.3127314   0.0000000), wk =   0.0151515
        k(   54) = (   0.4814815   0.3207501   0.0000000), wk =   0.0151515
        k(   55) = (   0.4768519   0.3287689   0.0000000), wk =   0.0151515
        k(   56) = (   0.4722222   0.3367877   0.0000000), wk =   0.0151515
        k(   57) = (   0.4675926   0.3448064   0.0000000), wk =   0.0151515
        k(   58) = (   0.4629630   0.3528252   0.0000000), wk =   0.0151515
        k(   59) = (   0.4583333   0.3608439   0.0000000), wk =   0.0151515
        k(   60) = (   0.4537037   0.3688627   0.0000000), wk =   0.0151515
        k(   61) = (   0.4490741   0.3768814   0.0000000), wk =   0.0151515
        k(   62) = (   0.4444444   0.3849002   0.0000000), wk =   0.0151515
        k(   63) = (   0.4398148   0.3929189   0.0000000), wk =   0.0151515
        k(   64) = (   0.4351852   0.4009377   0.0000000), wk =   0.0151515
        k(   65) = (   0.4305556   0.4089564   0.0000000), wk =   0.0151515
        k(   66) = (   0.4259259   0.4169752   0.0000000), wk =   0.0151515
        k(   67) = (   0.4212963   0.4249939   0.0000000), wk =   0.0151515
        k(   68) = (   0.4166667   0.4330127   0.0000000), wk =   0.0151515
        k(   69) = (   0.4120370   0.4410315   0.0000000), wk =   0.0151515
        k(   70) = (   0.4074074   0.4490502   0.0000000), wk =   0.0151515
        k(   71) = (   0.4027778   0.4570690   0.0000000), wk =   0.0151515
        k(   72) = (   0.3981481   0.4650877   0.0000000), wk =   0.0151515
        k(   73) = (   0.3935185   0.4731065   0.0000000), wk =   0.0151515
        k(   74) = (   0.3888889   0.4811252   0.0000000), wk =   0.0151515
        k(   75) = (   0.3842593   0.4891440   0.0000000), wk =   0.0151515
        k(   76) = (   0.3796296   0.4971627   0.0000000), wk =   0.0151515
        k(   77) = (   0.3750000   0.5051815   0.0000000), wk =   0.0151515
        k(   78) = (   0.3703704   0.5132002   0.0000000), wk =   0.0151515
        k(   79) = (   0.3657407   0.5212190   0.0000000), wk =   0.0151515
        k(   80) = (   0.3611111   0.5292377   0.0000000), wk =   0.0151515
        k(   81) = (   0.3564815   0.5372565   0.0000000), wk =   0.0151515
        k(   82) = (   0.3518519   0.5452753   0.0000000), wk =   0.0151515
        k(   83) = (   0.3472222   0.5532940   0.0000000), wk =   0.0151515
        k(   84) = (   0.3425926   0.5613128   0.0000000), wk =   0.0151515
        k(   85) = (   0.3379630   0.5693315   0.0000000), wk =   0.0151515
        k(   86) = (   0.3333333   0.5773503   0.0000000), wk =   0.0151515
        k(   87) = (   0.3260870   0.5647992   0.0000000), wk =   0.0151515
        k(   88) = (   0.3188406   0.5522481   0.0000000), wk =   0.0151515
        k(   89) = (   0.3115942   0.5396970   0.0000000), wk =   0.0151515
        k(   90) = (   0.3043478   0.5271459   0.0000000), wk =   0.0151515
        k(   91) = (   0.2971014   0.5145948   0.0000000), wk =   0.0151515
        k(   92) = (   0.2898551   0.5020437   0.0000000), wk =   0.0151515
        k(   93) = (   0.2826087   0.4894926   0.0000000), wk =   0.0151515
        k(   94) = (   0.2753623   0.4769415   0.0000000), wk =   0.0151515
        k(   95) = (   0.2681159   0.4643904   0.0000000), wk =   0.0151515
        k(   96) = (   0.2608696   0.4518393   0.0000000), wk =   0.0151515
        k(   97) = (   0.2536232   0.4392882   0.0000000), wk =   0.0151515
        k(   98) = (   0.2463768   0.4267372   0.0000000), wk =   0.0151515
        k(   99) = (   0.2391304   0.4141861   0.0000000), wk =   0.0151515
        k(  100) = (   0.2318841   0.4016350   0.0000000), wk =   0.0151515
        k(  101) = (   0.2246377   0.3890839   0.0000000), wk =   0.0151515
        k(  102) = (   0.2173913   0.3765328   0.0000000), wk =   0.0151515
        k(  103) = (   0.2101449   0.3639817   0.0000000), wk =   0.0151515
        k(  104) = (   0.2028986   0.3514306   0.0000000), wk =   0.0151515
        k(  105) = (   0.1956522   0.3388795   0.0000000), wk =   0.0151515
        k(  106) = (   0.1884058   0.3263284   0.0000000), wk =   0.0151515
        k(  107) = (   0.1811594   0.3137773   0.0000000), wk =   0.0151515
        k(  108) = (   0.1739130   0.3012262   0.0000000), wk =   0.0151515
        k(  109) = (   0.1666667   0.2886751   0.0000000), wk =   0.0151515
        k(  110) = (   0.1594203   0.2761240   0.0000000), wk =   0.0151515
        k(  111) = (   0.1521739   0.2635729   0.0000000), wk =   0.0151515
        k(  112) = (   0.1449275   0.2510219   0.0000000), wk =   0.0151515
        k(  113) = (   0.1376812   0.2384708   0.0000000), wk =   0.0151515
        k(  114) = (   0.1304348   0.2259197   0.0000000), wk =   0.0151515
        k(  115) = (   0.1231884   0.2133686   0.0000000), wk =   0.0151515
        k(  116) = (   0.1159420   0.2008175   0.0000000), wk =   0.0151515
        k(  117) = (   0.1086957   0.1882664   0.0000000), wk =   0.0151515
        k(  118) = (   0.1014493   0.1757153   0.0000000), wk =   0.0151515
        k(  119) = (   0.0942029   0.1631642   0.0000000), wk =   0.0151515
        k(  120) = (   0.0869565   0.1506131   0.0000000), wk =   0.0151515
        k(  121) = (   0.0797101   0.1380620   0.0000000), wk =   0.0151515
        k(  122) = (   0.0724638   0.1255109   0.0000000), wk =   0.0151515
        k(  123) = (   0.0652174   0.1129598   0.0000000), wk =   0.0151515
        k(  124) = (   0.0579710   0.1004087   0.0000000), wk =   0.0151515
        k(  125) = (   0.0507246   0.0878576   0.0000000), wk =   0.0151515
        k(  126) = (   0.0434783   0.0753066   0.0000000), wk =   0.0151515
        k(  127) = (   0.0362319   0.0627555   0.0000000), wk =   0.0151515
        k(  128) = (   0.0289855   0.0502044   0.0000000), wk =   0.0151515
        k(  129) = (   0.0217391   0.0376533   0.0000000), wk =   0.0151515
        k(  130) = (   0.0144928   0.0251022   0.0000000), wk =   0.0151515
        k(  131) = (   0.0072464   0.0125511   0.0000000), wk =   0.0151515
        k(  132) = (   0.0000000   0.0000000   0.0000000), wk =   0.0151515

                       cryst. coord.
        k(    1) = (   0.0000000   0.0000000   0.0000000), wk =   0.0151515
        k(    2) = (   0.0102041  -0.0000000   0.0000000), wk =   0.0151515
        k(    3) = (   0.0204082  -0.0000000   0.0000000), wk =   0.0151515
        k(    4) = (   0.0306122   0.0000000   0.0000000), wk =   0.0151515
        k(    5) = (   0.0408163  -0.0000000   0.0000000), wk =   0.0151515
        k(    6) = (   0.0510204  -0.0000000   0.0000000), wk =   0.0151515
        k(    7) = (   0.0612245   0.0000000   0.0000000), wk =   0.0151515
        k(    8) = (   0.0714286  -0.0000000   0.0000000), wk =   0.0151515
        k(    9) = (   0.0816327  -0.0000000   0.0000000), wk =   0.0151515
        k(   10) = (   0.0918367  -0.0000000   0.0000000), wk =   0.0151515
        k(   11) = (   0.1020408  -0.0000000   0.0000000), wk =   0.0151515
        k(   12) = (   0.1122449  -0.0000000   0.0000000), wk =   0.0151515
        k(   13) = (   0.1224490   0.0000000   0.0000000), wk =   0.0151515
        k(   14) = (   0.1326531   0.0000000   0.0000000), wk =   0.0151515
        k(   15) = (   0.1428571   0.0000000   0.0000000), wk =   0.0151515
        k(   16) = (   0.1530612  -0.0000000   0.0000000), wk =   0.0151515
        k(   17) = (   0.1632653   0.0000000   0.0000000), wk =   0.0151515
        k(   18) = (   0.1734694   0.0000000   0.0000000), wk =   0.0151515
        k(   19) = (   0.1836735  -0.0000000   0.0000000), wk =   0.0151515
        k(   20) = (   0.1938776  -0.0000000   0.0000000), wk =   0.0151515
        k(   21) = (   0.2040816  -0.0000000   0.0000000), wk =   0.0151515
        k(   22) = (   0.2142857  -0.0000000   0.0000000), wk =   0.0151515
        k(   23) = (   0.2244898  -0.0000000   0.0000000), wk =   0.0151515
        k(   24) = (   0.2346939  -0.0000000   0.0000000), wk =   0.0151515
        k(   25) = (   0.2448980   0.0000000   0.0000000), wk =   0.0151515
        k(   26) = (   0.2551020   0.0000000   0.0000000), wk =   0.0151515
        k(   27) = (   0.2653061   0.0000000   0.0000000), wk =   0.0151515
        k(   28) = (   0.2755102  -0.0000000   0.0000000), wk =   0.0151515
        k(   29) = (   0.2857143  -0.0000000   0.0000000), wk =   0.0151515
        k(   30) = (   0.2959184   0.0000000   0.0000000), wk =   0.0151515
        k(   31) = (   0.3061224  -0.0000000   0.0000000), wk =   0.0151515
        k(   32) = (   0.3163265  -0.0000000   0.0000000), wk =   0.0151515
        k(   33) = (   0.3265306   0.0000000   0.0000000), wk =   0.0151515
        k(   34) = (   0.3367347  -0.0000000   0.0000000), wk =   0.0151515
        k(   35) = (   0.3469388  -0.0000000   0.0000000), wk =   0.0151515
        k(   36) = (   0.3571429   0.0000000   0.0000000), wk =   0.0151515
        k(   37) = (   0.3673469  -0.0000000   0.0000000), wk =   0.0151515
        k(   38) = (   0.3775510  -0.0000000   0.0000000), wk =   0.0151515
        k(   39) = (   0.3877551  -0.0000000   0.0000000), wk =   0.0151515
        k(   40) = (   0.3979592  -0.0000000   0.0000000), wk =   0.0151515
        k(   41) = (   0.4081633  -0.0000000   0.0000000), wk =   0.0151515
        k(   42) = (   0.4183673  -0.0000000   0.0000000), wk =   0.0151515
        k(   43) = (   0.4285714  -0.0000000   0.0000000), wk =   0.0151515
        k(   44) = (   0.4387755  -0.0000000   0.0000000), wk =   0.0151515
        k(   45) = (   0.4489796  -0.0000000   0.0000000), wk =   0.0151515
        k(   46) = (   0.4591837   0.0000000   0.0000000), wk =   0.0151515
        k(   47) = (   0.4693878  -0.0000000   0.0000000), wk =   0.0151515
        k(   48) = (   0.4795918  -0.0000000   0.0000000), wk =   0.0151515
        k(   49) = (   0.4897959   0.0000000   0.0000000), wk =   0.0151515
        k(   50) = (   0.5000000   0.0000000   0.0000000), wk =   0.0151515
        k(   51) = (   0.4953704   0.0092593   0.0000000), wk =   0.0151515
        k(   52) = (   0.4907407   0.0185185   0.0000000), wk =   0.0151515
        k(   53) = (   0.4861111   0.0277778   0.0000000), wk =   0.0151515
        k(   54) = (   0.4814815   0.0370370   0.0000000), wk =   0.0151515
        k(   55) = (   0.4768519   0.0462963   0.0000000), wk =   0.0151515
        k(   56) = (   0.4722222   0.0555556   0.0000000), wk =   0.0151515
        k(   57) = (   0.4675926   0.0648148   0.0000000), wk =   0.0151515
        k(   58) = (   0.4629630   0.0740741   0.0000000), wk =   0.0151515
        k(   59) = (   0.4583333   0.0833333   0.0000000), wk =   0.0151515
        k(   60) = (   0.4537037   0.0925926   0.0000000), wk =   0.0151515
        k(   61) = (   0.4490741   0.1018519   0.0000000), wk =   0.0151515
        k(   62) = (   0.4444444   0.1111111   0.0000000), wk =   0.0151515
        k(   63) = (   0.4398148   0.1203704   0.0000000), wk =   0.0151515
        k(   64) = (   0.4351852   0.1296296   0.0000000), wk =   0.0151515
        k(   65) = (   0.4305556   0.1388889   0.0000000), wk =   0.0151515
        k(   66) = (   0.4259259   0.1481481   0.0000000), wk =   0.0151515
        k(   67) = (   0.4212963   0.1574074   0.0000000), wk =   0.0151515
        k(   68) = (   0.4166667   0.1666667   0.0000000), wk =   0.0151515
        k(   69) = (   0.4120370   0.1759259   0.0000000), wk =   0.0151515
        k(   70) = (   0.4074074   0.1851852   0.0000000), wk =   0.0151515
        k(   71) = (   0.4027778   0.1944444   0.0000000), wk =   0.0151515
        k(   72) = (   0.3981481   0.2037037   0.0000000), wk =   0.0151515
        k(   73) = (   0.3935185   0.2129630   0.0000000), wk =   0.0151515
        k(   74) = (   0.3888889   0.2222222   0.0000000), wk =   0.0151515
        k(   75) = (   0.3842593   0.2314815   0.0000000), wk =   0.0151515
        k(   76) = (   0.3796296   0.2407407   0.0000000), wk =   0.0151515
        k(   77) = (   0.3750000   0.2500000   0.0000000), wk =   0.0151515
        k(   78) = (   0.3703704   0.2592593   0.0000000), wk =   0.0151515
        k(   79) = (   0.3657407   0.2685185   0.0000000), wk =   0.0151515
        k(   80) = (   0.3611111   0.2777778   0.0000000), wk =   0.0151515
        k(   81) = (   0.3564815   0.2870370   0.0000000), wk =   0.0151515
        k(   82) = (   0.3518519   0.2962963   0.0000000), wk =   0.0151515
        k(   83) = (   0.3472222   0.3055556   0.0000000), wk =   0.0151515
        k(   84) = (   0.3425926   0.3148148   0.0000000), wk =   0.0151515
        k(   85) = (   0.3379630   0.3240741   0.0000000), wk =   0.0151515
        k(   86) = (   0.3333333   0.3333333   0.0000000), wk =   0.0151515
        k(   87) = (   0.3260870   0.3260870   0.0000000), wk =   0.0151515
        k(   88) = (   0.3188406   0.3188406   0.0000000), wk =   0.0151515
        k(   89) = (   0.3115942   0.3115942   0.0000000), wk =   0.0151515
        k(   90) = (   0.3043478   0.3043478   0.0000000), wk =   0.0151515
        k(   91) = (   0.2971014   0.2971014   0.0000000), wk =   0.0151515
        k(   92) = (   0.2898551   0.2898551   0.0000000), wk =   0.0151515
        k(   93) = (   0.2826087   0.2826087   0.0000000), wk =   0.0151515
        k(   94) = (   0.2753623   0.2753623   0.0000000), wk =   0.0151515
        k(   95) = (   0.2681159   0.2681159   0.0000000), wk =   0.0151515
        k(   96) = (   0.2608696   0.2608696   0.0000000), wk =   0.0151515
        k(   97) = (   0.2536232   0.2536232   0.0000000), wk =   0.0151515
        k(   98) = (   0.2463768   0.2463768   0.0000000), wk =   0.0151515
        k(   99) = (   0.2391304   0.2391304   0.0000000), wk =   0.0151515
        k(  100) = (   0.2318841   0.2318841   0.0000000), wk =   0.0151515
        k(  101) = (   0.2246377   0.2246377   0.0000000), wk =   0.0151515
        k(  102) = (   0.2173913   0.2173913   0.0000000), wk =   0.0151515
        k(  103) = (   0.2101449   0.2101449   0.0000000), wk =   0.0151515
        k(  104) = (   0.2028986   0.2028986   0.0000000), wk =   0.0151515
        k(  105) = (   0.1956522   0.1956522   0.0000000), wk =   0.0151515
        k(  106) = (   0.1884058   0.1884058   0.0000000), wk =   0.0151515
        k(  107) = (   0.1811594   0.1811594   0.0000000), wk =   0.0151515
        k(  108) = (   0.1739130   0.1739130   0.0000000), wk =   0.0151515
        k(  109) = (   0.1666667   0.1666667   0.0000000), wk =   0.0151515
        k(  110) = (   0.1594203   0.1594203   0.0000000), wk =   0.0151515
        k(  111) = (   0.1521739   0.1521739   0.0000000), wk =   0.0151515
        k(  112) = (   0.1449275   0.1449275   0.0000000), wk =   0.0151515
        k(  113) = (   0.1376812   0.1376812   0.0000000), wk =   0.0151515
        k(  114) = (   0.1304348   0.1304348   0.0000000), wk =   0.0151515
        k(  115) = (   0.1231884   0.1231884   0.0000000), wk =   0.0151515
        k(  116) = (   0.1159420   0.1159420   0.0000000), wk =   0.0151515
        k(  117) = (   0.1086957   0.1086957   0.0000000), wk =   0.0151515
        k(  118) = (   0.1014493   0.1014493   0.0000000), wk =   0.0151515
        k(  119) = (   0.0942029   0.0942029   0.0000000), wk =   0.0151515
        k(  120) = (   0.0869565   0.0869565   0.0000000), wk =   0.0151515
        k(  121) = (   0.0797101   0.0797101   0.0000000), wk =   0.0151515
        k(  122) = (   0.0724638   0.0724638   0.0000000), wk =   0.0151515
        k(  123) = (   0.0652174   0.0652174   0.0000000), wk =   0.0151515
        k(  124) = (   0.0579710   0.0579710   0.0000000), wk =   0.0151515
        k(  125) = (   0.0507246   0.0507246   0.0000000), wk =   0.0151515
        k(  126) = (   0.0434783   0.0434783   0.0000000), wk =   0.0151515
        k(  127) = (   0.0362319   0.0362319   0.0000000), wk =   0.0151515
        k(  128) = (   0.0289855   0.0289855   0.0000000), wk =   0.0151515
        k(  129) = (   0.0217391   0.0217391   0.0000000), wk =   0.0151515
        k(  130) = (   0.0144928   0.0144928   0.0000000), wk =   0.0151515
        k(  131) = (   0.0072464   0.0072464   0.0000000), wk =   0.0151515
        k(  132) = (   0.0000000   0.0000000   0.0000000), wk =   0.0151515

     Dense  grid:    86333 G-vectors     FFT dimensions: (  30,  30, 216)

     Smooth grid:    38421 G-vectors     FFT dimensions: (  24,  24, 180)

     Largest allocated arrays     est. size (Mb)     dimensions
        Kohn-Sham Wavefunctions         0.21 Mb     (     805,   17)
        NL pseudopotentials             0.66 Mb     (     805,   54)
        Each V/rho on FFT grid          0.49 Mb     (   32400)
        Each G-vector array             0.11 Mb     (   14383)
        G-vector shells                 0.03 Mb     (    3970)
     Largest temporary arrays     est. size (Mb)     dimensions
        Each subspace H/S matrix        0.00 Mb     (      17,   17)
        Each <psi_i|beta_j> matrix      0.01 Mb     (      54,   17)

     The potential is recalculated from file :
     ./out/aiida.save/charge-density.xml


     negative rho (up, down):  2.800E-05 0.000E+00
     Starting wfc are    8 randomized atomic wfcs +    9 random wfc

     Band Structure Calculation
     CG style diagonalization

     Computing kpt #:     1
     total cpu time spent up to now is        2.5 secs

     Computing kpt #:     2
     total cpu time spent up to now is        3.2 secs

     Computing kpt #:     3
     total cpu time spent up to now is        3.9 secs

     Computing kpt #:     4
     total cpu time spent up to now is        4.6 secs

     Computing kpt #:     5
     total cpu time spent up to now is        5.3 secs

     Computing kpt #:     6
     total cpu time spent up to now is        5.9 secs

     Computing kpt #:     7
     total cpu time spent up to now is        6.5 secs

     Computing kpt #:     8
     total cpu time spent up to now is        7.2 secs

     Computing kpt #:     9
     total cpu time spent up to now is        7.9 secs

     Computing kpt #:    10
     total cpu time spent up to now is        8.5 secs

     Computing kpt #:    11
     total cpu time spent up to now is        9.2 secs

     ethr =  1.15E-11,  avg # of iterations = 46.9

     total cpu time spent up to now is        9.2 secs

     End of band structure calculation

          k = 0.0000 0.0000 0.0000 (  4811 PWs)   bands (ev):

   -66.8018 -40.9490 -40.7428 -40.7428 -20.0028 -18.6891 -11.5238  -8.5595
    -8.5595  -7.6704  -7.4519  -7.4519  -5.9083  -3.1729  -3.1729  -2.9182
    -2.9182

          k = 0.0102 0.0059 0.0000 (  4817 PWs)   bands (ev):

   -66.8018 -40.9489 -40.7432 -40.7429 -20.0013 -18.6884 -11.5220  -8.5631
    -8.5579  -7.6913  -7.4545  -7.4332  -5.9090  -3.1755  -3.1700  -2.9231
    -2.9200

          k = 0.0204 0.0118 0.0000 (  4825 PWs)   bands (ev):

   -66.8017 -40.9487 -40.7443 -40.7431 -19.9967 -18.6866 -11.5166  -8.5739
    -8.5530  -7.7407  -7.4623  -7.3903  -5.9111  -3.1833  -3.1614  -2.9376
    -2.9255

          k = 0.0306 0.0177 0.0000 (  4825 PWs)   bands (ev):

   -66.8015 -40.9483 -40.7463 -40.7436 -19.9890 -18.6835 -11.5077  -8.5918
    -8.5449  -7.8030  -7.4751  -7.3389  -5.9146  -3.1959  -3.1472  -2.9612
    -2.9346

          k = 0.0408 0.0236 0.0000 (  4821 PWs)   bands (ev):

   -66.8012 -40.9478 -40.7489 -40.7442 -19.9782 -18.6791 -11.4953  -8.6166
    -8.5335  -7.8713  -7.4928  -7.2861  -5.9198  -3.2126  -3.1276  -2.9930
    -2.9472

          k = 0.0510 0.0295 0.0000 (  4821 PWs)   bands (ev):

   -66.8009 -40.9471 -40.7523 -40.7450 -19.9645 -18.6735 -11.4794  -8.6478
    -8.5190  -7.9430  -7.5152  -7.2347  -5.9267  -3.2327  -3.1029  -3.0322
    -2.9632

          k = 0.0612 0.0353 0.0000 (  4827 PWs)   bands (ev):

   -66.8005 -40.9463 -40.7565 -40.7459 -19.9477 -18.6668 -11.4603  -8.6853
    -8.5014  -8.0170  -7.5421  -7.1862  -5.9355  -3.2550  -3.0776  -3.0733
    -2.9822

          k = 0.0714 0.0412 0.0000 (  4827 PWs)   bands (ev):

   -66.8000 -40.9454 -40.7614 -40.7470 -19.9280 -18.6588 -11.4379  -8.7284
    -8.4807  -8.0925  -7.5730  -7.1416  -5.9465  -3.2785  -3.1279  -3.0393
    -3.0043

          k = 0.0816 0.0471 0.0000 (  4825 PWs)   bands (ev):

   -66.7995 -40.9443 -40.7669 -40.7483 -19.9054 -18.6496 -11.4125  -8.7767
    -8.4570  -8.1691  -7.6077  -7.1014  -5.9600  -3.3020  -3.1817  -3.0290
    -3.0012

          k = 0.0918 0.0530 0.0000 (  4832 PWs)   bands (ev):

   -66.7989 -40.9431 -40.7731 -40.7497 -19.8799 -18.6393 -11.3842  -8.8298
    -8.4303  -8.2467  -7.6458  -7.0664  -5.9762  -3.3244  -3.2380  -3.0562
    -2.9595

          k = 0.1020 0.0589 0.0000 (  4838 PWs)   bands (ev):

   -66.7982 -40.9417 -40.7800 -40.7513 -19.8517 -18.6279 -11.3533  -8.8869
    -8.4008  -8.3249  -7.6870  -7.0371  -5.9954  -3.3444  -3.2954  -3.0855
    -2.9145

          k = 0.1122 0.0648 0.0000 (  4836 PWs)   bands (ev):

   -66.7975 -40.9402 -40.7874 -40.7530 -19.8207 -18.6153 -11.3199  -8.9475
    -8.4037  -8.3685  -7.7309  -7.0137  -6.0179  -3.3610  -3.3526  -3.1167
    -2.8669

          k = 0.1224 0.0707 0.0000 (  4840 PWs)   bands (ev):

   -66.7967 -40.9387 -40.7954 -40.7548 -19.7871 -18.6017 -11.2845  -9.0110
    -8.4829  -8.3336  -7.7771  -6.9965  -6.0440  -3.4087  -3.3731  -3.1494
    -2.8169

          k = 0.1327 0.0766 0.0000 (  4838 PWs)   bands (ev):

   -66.7959 -40.9370 -40.8040 -40.7567 -19.7509 -18.5871 -11.2474  -9.0767
    -8.5625  -8.2961  -7.8253  -6.9858  -6.0739  -3.4626  -3.3801  -3.1835
    -2.7651

          k = 0.1429 0.0825 0.0000 (  4836 PWs)   bands (ev):

   -66.7950 -40.9352 -40.8131 -40.7588 -19.7122 -18.5715 -11.2090  -9.1440
    -8.6424  -8.2563  -7.8751  -6.9816  -6.1077  -3.5133  -3.3813  -3.2184
    -2.7119

          k = 0.1531 0.0884 0.0000 (  4828 PWs)   bands (ev):

   -66.7940 -40.9333 -40.8226 -40.7610 -19.6712 -18.5549 -11.1698  -9.2120
    -8.7226  -8.2141  -7.9262  -6.9836  -6.1455  -3.5600  -3.3762  -3.2541
    -2.6578

          k = 0.1633 0.0943 0.0000 (  4818 PWs)   bands (ev):

   -66.7931 -40.9313 -40.8326 -40.7633 -19.6279 -18.5374 -11.1303  -9.2801
    -8.8029  -8.1699  -7.9783  -6.9918  -6.1872  -3.6022  -3.3646  -3.2901
    -2.6030

          k = 0.1735 0.1002 0.0000 (  4830 PWs)   bands (ev):

   -66.7920 -40.9293 -40.8429 -40.7657 -19.5824 -18.5191 -11.0914  -9.3475
    -8.8833  -8.1238  -8.0311  -7.0056  -6.2327  -3.6392  -3.3465  -3.3261
    -2.5480

          k = 0.1837 0.1060 0.0000 (  4832 PWs)   bands (ev):

   -66.7910 -40.9272 -40.8535 -40.7681 -19.5350 -18.4999 -11.0537  -9.4134
    -8.9639  -8.0843  -8.0759  -7.0246  -6.2815  -3.6708  -3.3620  -3.3219
    -2.4931

          k = 0.1939 0.1119 0.0000 (  4830 PWs)   bands (ev):

   -66.7899 -40.9250 -40.8645 -40.7706 -19.4856 -18.4801 -11.0182  -9.4767
    -9.0444  -8.1378  -8.0265  -7.0483  -6.3332  -3.6968  -3.3973  -3.2912
    -2.4387

          k = 0.2041 0.1178 0.0000 (  4834 PWs)   bands (ev):

   -66.7888 -40.9227 -40.8757 -40.7732 -19.4345 -18.4595 -10.9860  -9.5367
    -9.1248  -8.1911  -7.9757  -7.0759  -6.3872  -3.7170  -3.4319  -3.2547
    -2.3850

          k = 0.2143 0.1237 0.0000 (  4832 PWs)   bands (ev):

   -66.7876 -40.9205 -40.8871 -40.7758 -19.3817 -18.4383 -10.9581  -9.5922
    -9.2051  -8.2441  -7.9237  -7.1070  -6.4427  -3.7315  -3.4655  -3.2130
    -2.3324

          k = 0.2245 0.1296 0.0000 (  4832 PWs)   bands (ev):

   -66.7865 -40.9182 -40.8986 -40.7785 -19.3275 -18.4166 -10.9358  -9.6424
    -9.2852  -8.2967  -7.8708  -7.1407  -6.4988  -3.7407  -3.4979  -3.1665
    -2.2810

          k = 0.2347 0.1355 0.0000 (  4838 PWs)   bands (ev):

   -66.7853 -40.9158 -40.9102 -40.7812 -19.2721 -18.3944 -10.9203  -9.6862
    -9.3649  -8.3486  -7.8173  -7.1764  -6.5545  -3.7445  -3.5288  -3.1160
    -2.2310

          k = 0.2449 0.1414 0.0000 (  4828 PWs)   bands (ev):

   -66.7842 -40.9219 -40.9135 -40.7839 -19.2155 -18.3718 -10.9125  -9.7231
    -9.4441  -8.3996  -7.7633  -7.2136  -6.6090  -3.7435  -3.5581  -3.0619
    -2.1827

          k = 0.2551 0.1473 0.0000 (  4832 PWs)   bands (ev):

   -66.7830 -40.9336 -40.9111 -40.7866 -19.1580 -18.3489 -10.9132  -9.7526
    -9.5227  -8.4497  -7.7091  -7.2516  -6.6611  -3.7380  -3.5855  -3.0050
    -2.1362

          k = 0.2653 0.1532 0.0000 (  4840 PWs)   bands (ev):

   -66.7818 -40.9452 -40.9087 -40.7893 -19.0998 -18.3258 -10.9226  -9.7751
    -9.6005  -8.4986  -7.6549  -7.2899  -6.7098  -3.7283  -3.6110  -2.9460
    -2.0916

          k = 0.2755 0.1591 0.0000 (  4842 PWs)   bands (ev):

   -66.7807 -40.9568 -40.9064 -40.7920 -19.0411 -18.3025 -10.9405  -9.7910
    -9.6773  -8.5462  -7.6011  -7.3282  -6.7541  -3.7148  -3.6344  -2.8854
    -2.0490

          k = 0.2857 0.1650 0.0000 (  4830 PWs)   bands (ev):

   -66.7795 -40.9682 -40.9041 -40.7946 -18.9821 -18.2792 -10.9661  -9.8016
    -9.7530  -8.5924  -7.5479  -7.3659  -6.7931  -3.6979  -3.6555  -2.8238
    -2.0085

          k = 0.2959 0.1708 0.0000 (  4826 PWs)   bands (ev):

   -66.7784 -40.9794 -40.9018 -40.7972 -18.9231 -18.2559 -10.9985  -9.8273
    -9.8082  -8.6370  -7.4956  -7.4028  -6.8260  -3.6780  -3.6743  -2.7619
    -1.9701

          k = 0.3061 0.1767 0.0000 (  4820 PWs)   bands (ev):

   -66.7772 -40.9904 -40.8996 -40.7998 -18.8642 -18.2328 -11.0364  -9.9000
    -9.8122  -8.6801  -7.4444  -7.4386  -6.8521  -3.6907  -3.6554  -2.7003
    -1.9339

          k = 0.3163 0.1826 0.0000 (  4808 PWs)   bands (ev):

   -66.7762 -41.0011 -40.8974 -40.8023 -18.8058 -18.2100 -11.0784  -9.9709
    -9.8152  -8.7214  -7.4730  -7.3945  -6.8709  -3.7048  -3.6306  -2.6395
    -1.8999

          k = 0.3265 0.1885 0.0000 (  4800 PWs)   bands (ev):

   -66.7751 -41.0115 -40.8952 -40.8047 -18.7481 -18.1875 -11.1236 -10.0398
    -9.8183  -8.7609  -7.5058  -7.3463  -6.8821  -3.7164  -3.6038  -2.5800
    -1.8681

          k = 0.3367 0.1944 0.0000 (  4788 PWs)   bands (ev):

   -66.7741 -41.0215 -40.8932 -40.8071 -18.6914 -18.1655 -11.1707 -10.1064
    -9.8225  -8.7985  -7.5369  -7.2998  -6.8858  -3.7257  -3.5753  -2.5223
    -1.8385

          k = 0.3469 0.2003 0.0000 (  4798 PWs)   bands (ev):

   -66.7731 -41.0312 -40.8912 -40.8093 -18.6360 -18.1441 -11.2188 -10.1704
    -9.8282  -8.8342  -7.5662  -7.2555  -6.8822  -3.7327  -3.5456  -2.4670
    -1.8111

          k = 0.3571 0.2062 0.0000 (  4802 PWs)   bands (ev):

   -66.7721 -41.0404 -40.8893 -40.8115 -18.5821 -18.1234 -11.2671 -10.2317
    -9.8360  -8.8678  -7.5937  -7.2134  -6.8716  -3.7376  -3.5149  -2.4142
    -1.7857

          k = 0.3673 0.2121 0.0000 (  4814 PWs)   bands (ev):

   -66.7712 -41.0491 -40.8875 -40.8136 -18.5301 -18.1035 -11.3149 -10.2900
    -9.8457  -8.8994  -7.6192  -7.1738  -6.8549  -3.7405  -3.4835  -2.3645
    -1.7624

          k = 0.3776 0.2180 0.0000 (  4810 PWs)   bands (ev):

   -66.7704 -41.0573 -40.8858 -40.8155 -18.4803 -18.0846 -11.3614 -10.3451
    -9.8573  -8.9288  -7.6427  -7.1367  -6.8328  -3.7415  -3.4518  -2.3181
    -1.7412

          k = 0.3878 0.2239 0.0000 (  4812 PWs)   bands (ev):

   -66.7696 -41.0650 -40.8842 -40.8173 -18.4330 -18.0666 -11.4063 -10.3967
    -9.8705  -8.9561  -7.6643  -7.1023  -6.8064  -3.7410  -3.4201  -2.2753
    -1.7219

          k = 0.3980 0.2298 0.0000 (  4812 PWs)   bands (ev):

   -66.7689 -41.0721 -40.8827 -40.8190 -18.3885 -18.0498 -11.4489 -10.4446
    -9.8848  -8.9811  -7.6838  -7.0707  -6.7768  -3.7392  -3.3886  -2.2361
    -1.7045

          k = 0.4082 0.2357 0.0000 (  4814 PWs)   bands (ev):

   -66.7682 -41.0787 -40.8813 -40.8205 -18.3471 -18.0343 -11.4889 -10.4886
    -9.8997  -9.0038  -7.7014  -7.0420  -6.7452  -3.7363  -3.3580  -2.2008
    -1.6890

          k = 0.4184 0.2415 0.0000 (  4818 PWs)   bands (ev):

   -66.7676 -41.0846 -40.8801 -40.8219 -18.3091 -18.0201 -11.5258 -10.5286
    -9.9146  -9.0242  -7.7171  -7.0163  -6.7128  -3.7327  -3.3285  -2.1694
    -1.6753

          k = 0.4286 0.2474 0.0000 (  4814 PWs)   bands (ev):

   -66.7670 -41.0899 -40.8790 -40.8231 -18.2748 -18.0073 -11.5592 -10.5643
    -9.9292  -9.0423  -7.7308  -6.9935  -6.6809  -3.7286  -3.3006  -2.1420
    -1.6633

          k = 0.4388 0.2533 0.0000 (  4814 PWs)   bands (ev):

   -66.7666 -41.0945 -40.8780 -40.8242 -18.2445 -17.9961 -11.5889 -10.5956
    -9.9429  -9.0581  -7.7427  -6.9738  -6.6505  -3.7243  -3.2748  -2.1184
    -1.6531

          k = 0.4490 0.2592 0.0000 (  4822 PWs)   bands (ev):

   -66.7662 -41.0984 -40.8772 -40.8252 -18.2184 -17.9864 -11.6146 -10.6223
    -9.9552  -9.0714  -7.7526  -6.9571  -6.6228  -3.7202  -3.2517  -2.0986
    -1.6445

          k = 0.4592 0.2651 0.0000 (  4818 PWs)   bands (ev):

   -66.7658 -41.1016 -40.8766 -40.8259 -18.1967 -17.9784 -11.6359 -10.6443
    -9.9659  -9.0824  -7.7607  -6.9434  -6.5988  -3.7164  -3.2319  -2.0826
    -1.6375

          k = 0.4694 0.2710 0.0000 (  4822 PWs)   bands (ev):

   -66.7656 -41.1042 -40.8760 -40.8265 -18.1796 -17.9721 -11.6527 -10.6616
    -9.9744  -9.0909  -7.7670  -6.9328  -6.5791  -3.7132  -3.2158  -2.0702
    -1.6321

          k = 0.4796 0.2769 0.0000 (  4814 PWs)   bands (ev):

   -66.7654 -41.1060 -40.8756 -40.8269 -18.1673 -17.9676 -11.6649 -10.6739
    -9.9808  -9.0970  -7.7715  -6.9252  -6.5646  -3.7107  -3.2039  -2.0614
    -1.6283

          k = 0.4898 0.2828 0.0000 (  4796 PWs)   bands (ev):

   -66.7653 -41.1071 -40.8754 -40.8272 -18.1599 -17.9649 -11.6722 -10.6814
    -9.9846  -9.1007  -7.7741  -6.9207  -6.5557  -3.7092  -3.1966  -2.0562
    -1.6260

          k = 0.5000 0.2887 0.0000 (  4780 PWs)   bands (ev):

   -66.7652 -41.1074 -40.8753 -40.8273 -18.1574 -17.9640 -11.6746 -10.6839
    -9.9859  -9.1019  -7.7750  -6.9192  -6.5526  -3.7087  -3.1941  -2.0545
    -1.6252

          k = 0.4954 0.2967 0.0000 (  4798 PWs)   bands (ev):

   -66.7652 -41.1073 -40.8753 -40.8275 -18.1570 -17.9637 -11.6734 -10.6849
    -9.9855  -9.1021  -7.7747  -6.9285  -6.5477  -3.7082  -3.1937  -2.0528
    -1.6292

          k = 0.4907 0.3047 0.0000 (  4806 PWs)   bands (ev):

   -66.7652 -41.1070 -40.8753 -40.8281 -18.1557 -17.9629 -11.6696 -10.6882
    -9.9842  -9.1025  -7.7739  -6.9552  -6.5341  -3.7066  -3.1925  -2.0477
    -1.6408

          k = 0.4861 0.3127 0.0000 (  4812 PWs)   bands (ev):

   -66.7652 -41.1066 -40.8752 -40.8291 -18.1536 -17.9616 -11.6633 -10.6935
    -9.9820  -9.1032  -7.7726  -6.9959  -6.5150  -3.7042  -3.1904  -2.0394
    -1.6597

          k = 0.4815 0.3208 0.0000 (  4806 PWs)   bands (ev):

   -66.7651 -41.1059 -40.8751 -40.8304 -18.1507 -17.9598 -11.6544 -10.7010
    -9.9789  -9.1041  -7.7708  -7.0476  -6.4931  -3.7012  -3.1873  -2.0282
    -1.6853

          k = 0.4769 0.3288 0.0000 (  4808 PWs)   bands (ev):

   -66.7650 -41.1050 -40.8750 -40.8322 -18.1470 -17.9575 -11.6431 -10.7106
    -9.9750  -9.1050  -7.7688  -7.1079  -6.4706  -3.6980  -3.1828  -2.0144
    -1.7163

          k = 0.4722 0.3368 0.0000 (  4808 PWs)   bands (ev):

   -66.7650 -41.1040 -40.8748 -40.8343 -18.1425 -17.9547 -11.6293 -10.7222
    -9.9704  -9.1058  -7.7666  -7.1753  -6.4485  -3.6950  -3.1767  -1.9992
    -1.7512

          k = 0.4676 0.3448 0.0000 (  4812 PWs)   bands (ev):

   -66.7649 -41.1028 -40.8746 -40.8368 -18.1372 -17.9515 -11.6130 -10.7358
    -9.9649  -9.1063  -7.7645  -7.2485  -6.4274  -3.6928  -3.1687  -1.9844
    -1.7874

          k = 0.4630 0.3528 0.0000 (  4812 PWs)   bands (ev):

   -66.7647 -41.1014 -40.8744 -40.8396 -18.1312 -17.9477 -11.5943 -10.7514
    -9.9587  -9.1063  -7.7625  -7.3269  -6.4076  -3.6918  -3.1584  -1.9752
    -1.8189

          k = 0.4583 0.3608 0.0000 (  4824 PWs)   bands (ev):

   -66.7646 -41.0998 -40.8741 -40.8428 -18.1245 -17.9436 -11.5732 -10.7688
    -9.9519  -9.1057  -7.7609  -7.4097  -6.3891  -3.6926  -3.1456  -1.9816
    -1.8353

          k = 0.4537 0.3689 0.0000 (  4828 PWs)   bands (ev):

   -66.7645 -41.0980 -40.8739 -40.8463 -18.1172 -17.9390 -11.5498 -10.7880
    -9.9444  -9.1043  -7.7599  -7.4965  -6.3718  -3.6956  -3.1299  -2.0098
    -1.8295

          k = 0.4491 0.3769 0.0000 (  4832 PWs)   bands (ev):

   -66.7644 -41.0960 -40.8736 -40.8501 -18.1092 -17.9341 -11.5240 -10.8088
    -9.9364  -9.1020  -7.7596  -7.5867  -6.3556  -3.7012  -3.1114  -2.0529
    -1.8082

          k = 0.4444 0.3849 0.0000 (  4826 PWs)   bands (ev):

   -66.7642 -41.0939 -40.8733 -40.8543 -18.1006 -17.9288 -11.4960 -10.8311
    -9.9278  -9.0987  -7.7602  -7.6798  -6.3401  -3.7096  -3.0898  -2.1030
    -1.7787

          k = 0.4398 0.3929 0.0000 (  4824 PWs)   bands (ev):

   -66.7640 -41.0916 -40.8729 -40.8587 -18.0914 -17.9232 -11.4658 -10.8547
    -9.9188  -9.0941  -7.7756  -7.7619  -6.3252  -3.7210  -3.0653  -2.1562
    -1.7446

          k = 0.4352 0.4009 0.0000 (  4812 PWs)   bands (ev):

   -66.7639 -41.0892 -40.8726 -40.8634 -18.0818 -17.9173 -11.4334 -10.8795
    -9.9095  -9.0883  -7.8735  -7.7648  -6.3106  -3.7353  -3.0381  -2.2104
    -1.7076

          k = 0.4306 0.4090 0.0000 (  4816 PWs)   bands (ev):

   -66.7637 -41.0866 -40.8722 -40.8683 -18.0718 -17.9112 -11.3989 -10.9054
    -9.8998  -9.0811  -7.9731  -7.7691  -6.2961  -3.7526  -3.0083  -2.2647
    -1.6686

          k = 0.4259 0.4170 0.0000 (  4812 PWs)   bands (ev):

   -66.7635 -41.0838 -40.8735 -40.8719 -18.0614 -17.9049 -11.3623 -10.9320
    -9.8900  -9.0726  -8.0740  -7.7748  -6.2814  -3.7727  -2.9762  -2.3181
    -1.6282

          k = 0.4213 0.4250 0.0000 (  4808 PWs)   bands (ev):

   -66.7633 -41.0809 -40.8789 -40.8715 -18.0507 -17.8984 -11.3238 -10.9592
    -9.8801  -9.0627  -8.1759  -7.7820  -6.2664  -3.7954  -2.9423  -2.3703
    -1.5869

          k = 0.4167 0.4330 0.0000 (  4800 PWs)   bands (ev):

   -66.7631 -41.0778 -40.8844 -40.8711 -18.0397 -17.8918 -11.2834 -10.9868
    -9.8702  -9.0514  -8.2783  -7.7908  -6.2508  -3.8204  -2.9067  -2.4206
    -1.5453

          k = 0.4120 0.4410 0.0000 (  4798 PWs)   bands (ev):

   -66.7629 -41.0746 -40.8902 -40.8707 -18.0286 -17.8851 -11.2412 -11.0146
    -9.8605  -9.0387  -8.3808  -7.8012  -6.2346  -3.8477  -2.8699  -2.4689
    -1.5036

          k = 0.4074 0.4491 0.0000 (  4796 PWs)   bands (ev):

   -66.7627 -41.0712 -40.8960 -40.8703 -18.0174 -17.8783 -11.1973 -11.0424
    -9.8511  -9.0248  -8.4830  -7.8132  -6.2175  -3.8768  -2.8322  -2.5147
    -1.4623

          k = 0.4028 0.4571 0.0000 (  4792 PWs)   bands (ev):

   -66.7625 -41.0678 -40.9020 -40.8699 -18.0061 -17.8716 -11.1517 -11.0699
    -9.8421  -9.0096  -8.5845  -7.8267  -6.1996  -3.9075  -2.7939  -2.5578
    -1.4217

          k = 0.3981 0.4651 0.0000 (  4792 PWs)   bands (ev):

   -66.7623 -41.0642 -40.9081 -40.8695 -17.9950 -17.8650 -11.1047 -11.0969
    -9.8338  -8.9933  -8.6847  -7.8418  -6.1808  -3.9395  -2.7554  -2.5982
    -1.3823

          k = 0.3935 0.4731 0.0000 (  4788 PWs)   bands (ev):

   -66.7621 -41.0605 -40.9142 -40.8691 -17.9839 -17.8585 -11.1232 -11.0563
    -9.8264  -8.9761  -8.7831  -7.8582  -6.1612  -3.9725  -2.7170  -2.6355
    -1.3442

          k = 0.3889 0.4811 0.0000 (  4788 PWs)   bands (ev):

   -66.7619 -41.0567 -40.9203 -40.8688 -17.9731 -17.8522 -11.1486 -11.0067
    -9.8202  -8.9579  -8.8792  -7.8758  -6.1407  -4.0061  -2.6791  -2.6698
    -1.3079

          k = 0.3843 0.4891 0.0000 (  4786 PWs)   bands (ev):

   -66.7618 -41.0528 -40.9265 -40.8684 -17.9626 -17.8461 -11.1729 -10.9561
    -9.8157  -8.9721  -8.9392  -7.8945  -6.1197  -4.0400  -2.7009  -2.6420
    -1.2736

          k = 0.3796 0.4972 0.0000 (  4790 PWs)   bands (ev):

   -66.7616 -41.0489 -40.9326 -40.8681 -17.9526 -17.8402 -11.1960 -10.9046
    -9.8133  -9.0609  -8.9199  -7.9140  -6.0981  -4.0738  -2.7289  -2.6060
    -1.2417

          k = 0.3750 0.5052 0.0000 (  4788 PWs)   bands (ev):

   -66.7614 -41.0449 -40.9386 -40.8677 -17.9430 -17.8347 -11.2175 -10.8526
    -9.8140  -9.1445  -8.9005  -7.9341  -6.0765  -4.1069  -2.7537  -2.5716
    -1.2123

          k = 0.3704 0.5132 0.0000 (  4792 PWs)   bands (ev):

   -66.7613 -41.0409 -40.9445 -40.8674 -17.9340 -17.8296 -11.2374 -10.8003
    -9.8185  -9.2215  -8.8812  -7.9543  -6.0549  -4.1390  -2.7753  -2.5391
    -1.1856

          k = 0.3657 0.5212 0.0000 (  4792 PWs)   bands (ev):

   -66.7611 -41.0369 -40.9502 -40.8672 -17.9257 -17.8249 -11.2555 -10.7483
    -9.8280  -9.2902  -8.8623  -7.9742  -6.0340  -4.1694  -2.7940  -2.5089
    -1.1619

          k = 0.3611 0.5292 0.0000 (  4786 PWs)   bands (ev):

   -66.7610 -41.0330 -40.9557 -40.8669 -17.9182 -17.8207 -11.2715 -10.6972
    -9.8436  -9.3489  -8.8443  -7.9935  -6.0140  -4.1977  -2.8096  -2.4814
    -1.1412

          k = 0.3565 0.5373 0.0000 (  4788 PWs)   bands (ev):

   -66.7609 -41.0293 -40.9608 -40.8667 -17.9116 -17.8171 -11.2855 -10.6479
    -9.8654  -9.3961  -8.8276  -8.0115  -5.9956  -4.2231  -2.8224  -2.4571
    -1.1237

          k = 0.3519 0.5453 0.0000 (  4780 PWs)   bands (ev):

   -66.7608 -41.0258 -40.9654 -40.8665 -17.9060 -17.8140 -11.2971 -10.6016
    -9.8926  -9.4315  -8.8127  -8.0276  -5.9794  -4.2451  -2.8325  -2.4363
    -1.1095

          k = 0.3472 0.5533 0.0000 (  4776 PWs)   bands (ev):

   -66.7607 -41.0227 -40.9695 -40.8664 -17.9015 -17.8115 -11.3064 -10.5604
    -9.9222  -9.4560  -8.8002  -8.0413  -5.9658  -4.2632  -2.8400  -2.4195
    -1.0984

          k = 0.3426 0.5613 0.0000 (  4784 PWs)   bands (ev):

   -66.7607 -41.0202 -40.9726 -40.8663 -17.8982 -17.8097 -11.3131 -10.5270
    -9.9497  -9.4712  -8.7907  -8.0517  -5.9555  -4.2766  -2.8451  -2.4071
    -1.0907

          k = 0.3380 0.5693 0.0000 (  4784 PWs)   bands (ev):

   -66.7607 -41.0186 -40.9747 -40.8662 -17.8961 -17.8086 -11.3172 -10.5047
    -9.9696  -9.4792  -8.7848  -8.0583  -5.9490  -4.2849  -2.8480  -2.3993
    -1.0861

          k = 0.3333 0.5774 0.0000 (  4788 PWs)   bands (ev):

   -66.7606 -41.0180 -40.9754 -40.8662 -17.8954 -17.8082 -11.3186 -10.4969
    -9.9771  -9.4815  -8.7827  -8.0606  -5.9468  -4.2878  -2.8490  -2.3967
    -1.0846

          k = 0.3261 0.5648 0.0000 (  4786 PWs)   bands (ev):

   -66.7607 -41.0193 -40.9737 -40.8662 -17.8972 -17.8091 -11.3151 -10.5154
    -9.9585  -9.4768  -8.7879  -8.0548  -5.9525  -4.2807  -2.8470  -2.4034
    -1.0881

          k = 0.3188 0.5522 0.0000 (  4790 PWs)   bands (ev):

   -66.7608 -41.0225 -40.9694 -40.8664 -17.9029 -17.8121 -11.3045 -10.5631
    -9.9095  -9.4640  -8.8032  -8.0371  -5.9699  -4.2594  -2.8415  -2.4240
    -1.0982

          k = 0.3116 0.5397 0.0000 (  4786 PWs)   bands (ev):

   -66.7609 -41.0265 -40.9635 -40.8667 -17.9128 -17.8170 -11.2865 -10.6258
    -9.8434  -9.4440  -8.8275  -8.0086  -5.9984  -4.2251  -2.8337  -2.4586
    -1.1142

          k = 0.3043 0.5271 0.0000 (  4790 PWs)   bands (ev):

   -66.7611 -41.0306 -40.9566 -40.8672 -17.9270 -17.8241 -11.2610 -10.6931
    -9.7718  -9.4154  -8.8588  -7.9708  -6.0368  -4.1795  -2.8245  -2.5068
    -1.1350

          k = 0.2971 0.5146 0.0000 (  4792 PWs)   bands (ev):

   -66.7614 -41.0344 -40.9491 -40.8678 -17.9459 -17.8333 -11.2280 -10.7591
    -9.7036  -9.3756  -8.8950  -7.9255  -6.0834  -4.1252  -2.8151  -2.5678
    -1.1597

          k = 0.2899 0.5020 0.0000 (  4784 PWs)   bands (ev):

   -66.7618 -41.0377 -40.9413 -40.8685 -17.9694 -17.8446 -11.1873 -10.8205
    -9.6457  -9.3214  -8.9342  -7.8744  -6.1359  -4.0651  -2.8067  -2.6399
    -1.1871

          k = 0.2826 0.4895 0.0000 (  4782 PWs)   bands (ev):

   -66.7623 -41.0402 -40.9333 -40.8694 -17.9978 -17.8579 -11.1391 -10.8755
    -9.6015  -9.2517  -8.9746  -7.8190  -6.1925  -4.0021  -2.8002  -2.7212
    -1.2163

          k = 0.2754 0.4769 0.0000 (  4784 PWs)   bands (ev):

   -66.7628 -41.0419 -40.9252 -40.8705 -18.0310 -17.8733 -11.0834 -10.9229
    -9.5702  -9.1689  -9.0149  -7.7606  -6.2513  -3.9393  -2.8094  -2.7968
    -1.2463

          k = 0.2681 0.4644 0.0000 (  4784 PWs)   bands (ev):

   -66.7634 -41.0427 -40.9171 -40.8717 -18.0690 -17.8907 -11.0204 -10.9623
    -9.5495  -9.0770  -9.0539  -7.7001  -6.3104  -3.8794  -2.9018  -2.7976
    -1.2763

          k = 0.2609 0.4518 0.0000 (  4782 PWs)   bands (ev):

   -66.7641 -41.0425 -40.9089 -40.8730 -18.1117 -17.9099 -10.9934 -10.9502
    -9.5367  -9.0907  -8.9796  -7.6383  -6.3685  -3.8254  -2.9955  -2.8032
    -1.3055

          k = 0.2536 0.4393 0.0000 (  4776 PWs)   bands (ev):

   -66.7648 -41.0414 -40.9008 -40.8746 -18.1588 -17.9308 -11.0160 -10.8732
    -9.5307  -9.1245  -8.8791  -7.5760  -6.4243  -3.7803  -3.0869  -2.8142
    -1.3337

          k = 0.2464 0.4267 0.0000 (  4784 PWs)   bands (ev):

   -66.7657 -41.0393 -40.8927 -40.8763 -18.2103 -17.9534 -11.0304 -10.7895
    -9.5305  -9.1547  -8.7773  -7.5138  -6.4770  -3.7475  -3.1721  -2.8310
    -1.3608

          k = 0.2391 0.4142 0.0000 (  4798 PWs)   bands (ev):

   -66.7666 -41.0362 -40.8847 -40.8781 -18.2658 -17.9775 -11.0368 -10.6997
    -9.5359  -9.1807  -8.6754  -7.4522  -6.5257  -3.7306  -3.2461  -2.8536
    -1.3870

          k = 0.2319 0.4016 0.0000 (  4812 PWs)   bands (ev):

   -66.7676 -41.0321 -40.8801 -40.8768 -18.3250 -18.0029 -11.0357 -10.6039
    -9.5465  -9.2020  -8.5745  -7.3917  -6.5701  -3.7330  -3.3042  -2.8817
    -1.4129

          k = 0.2246 0.3891 0.0000 (  4800 PWs)   bands (ev):

   -66.7686 -41.0270 -40.8822 -40.8690 -18.3874 -18.0294 -11.0276 -10.5028
    -9.5620  -9.2182  -8.4755  -7.3328  -6.6097  -3.7549  -3.3447  -2.9148
    -1.4391

          k = 0.2174 0.3765 0.0000 (  4796 PWs)   bands (ev):

   -66.7697 -41.0210 -40.8844 -40.8614 -18.4529 -18.0570 -11.0134 -10.3968
    -9.5819  -9.2288  -8.3793  -7.2759  -6.6445  -3.7915  -3.3704  -2.9522
    -1.4667

          k = 0.2101 0.3640 0.0000 (  4786 PWs)   bands (ev):

   -66.7709 -41.0141 -40.8868 -40.8540 -18.5209 -18.0855 -10.9939 -10.2866
    -9.6056  -9.2333  -8.2870  -7.2214  -6.6743  -3.8350  -3.3871  -2.9931
    -1.4966

          k = 0.2029 0.3514 0.0000 (  4784 PWs)   bands (ev):

   -66.7721 -41.0063 -40.8893 -40.8467 -18.5910 -18.1147 -10.9702 -10.1728
    -9.6320  -9.2315  -8.1999  -7.1695  -6.6987  -3.8784  -3.3997  -3.0366
    -1.5296

          k = 0.1957 0.3389 0.0000 (  4796 PWs)   bands (ev):

   -66.7734 -40.9976 -40.8919 -40.8396 -18.6628 -18.1444 -10.9438 -10.0563
    -9.6599  -9.2228  -8.1196  -7.1206  -6.7173  -3.9167  -3.4113  -3.0817
    -1.5667

          k = 0.1884 0.3263 0.0000 (  4806 PWs)   bands (ev):

   -66.7748 -40.9882 -40.8946 -40.8328 -18.7359 -18.1745 -10.9162  -9.9381
    -9.6874  -9.2064  -8.0480  -7.0750  -6.7291  -3.9469  -3.4232  -3.1275
    -1.6084

          k = 0.1812 0.3138 0.0000 (  4808 PWs)   bands (ev):

   -66.7761 -40.9781 -40.8974 -40.8261 -18.8098 -18.2049 -10.8895  -9.8196
    -9.7124  -9.1817  -7.9871  -7.0330  -6.7329  -3.9673  -3.4354  -3.1733
    -1.6552

          k = 0.1739 0.3012 0.0000 (  4810 PWs)   bands (ev):

   -66.7776 -40.9673 -40.9002 -40.8197 -18.8842 -18.2353 -10.8659  -9.7326
    -9.7024  -9.1475  -7.9390  -6.9948  -6.7273  -3.9773  -3.4475  -3.2181
    -1.7074

          k = 0.1667 0.2887 0.0000 (  4818 PWs)   bands (ev):

   -66.7790 -40.9560 -40.9031 -40.8134 -18.9586 -18.2657 -10.8478  -9.7452
    -9.5887  -9.1022  -7.9056  -6.9605  -6.7111  -3.9769  -3.4586  -3.2612
    -1.7650

          k = 0.1594 0.2761 0.0000 (  4815 PWs)   bands (ev):

   -66.7804 -40.9441 -40.9060 -40.8075 -19.0327 -18.2959 -10.8376  -9.7477
    -9.4809  -9.0442  -7.8877  -6.9304  -6.6835  -3.9667  -3.4675  -3.3018
    -1.8279

          k = 0.1522 0.2636 0.0000 (  4831 PWs)   bands (ev):

   -66.7819 -40.9319 -40.9089 -40.8018 -19.1061 -18.3257 -10.8371  -9.7381
    -9.3810  -8.9722  -7.8851  -6.9047  -6.6450  -3.9478  -3.4732  -3.3394
    -1.8957

          k = 0.1449 0.2510 0.0000 (  4835 PWs)   bands (ev):

   -66.7834 -40.9193 -40.9119 -40.7963 -19.1784 -18.3551 -10.8471  -9.7153
    -9.2897  -8.8864  -7.8966  -6.8834  -6.5970  -3.9213  -3.4742  -3.3732
    -1.9679

          k = 0.1377 0.2385 0.0000 (  4837 PWs)   bands (ev):

   -66.7848 -40.9148 -40.9065 -40.7911 -19.2492 -18.3839 -10.8676  -9.6794
    -9.2060  -8.7886  -7.9200  -6.8667  -6.5417  -3.8885  -3.4697  -3.4027
    -2.0440

          k = 0.1304 0.2259 0.0000 (  4827 PWs)   bands (ev):

   -66.7863 -40.9177 -40.8936 -40.7861 -19.3184 -18.4119 -10.8975  -9.6313
    -9.1272  -8.6826  -7.9529  -6.8547  -6.4814  -3.8509  -3.4585  -3.4273
    -2.1233

          k = 0.1232 0.2134 0.0000 (  4827 PWs)   bands (ev):

   -66.7877 -40.9206 -40.8807 -40.7814 -19.3855 -18.4391 -10.9350  -9.5729
    -9.0509  -8.5719  -7.9930  -6.8475  -6.4186  -3.8093  -3.4467  -3.4402
    -2.2051

          k = 0.1159 0.2008 0.0000 (  4819 PWs)   bands (ev):

   -66.7891 -40.9234 -40.8678 -40.7770 -19.4503 -18.4653 -10.9783  -9.5059
    -8.9749  -8.4595  -8.0380  -6.8453  -6.3556  -3.7644  -3.4603  -3.4148
    -2.2884

          k = 0.1087 0.1883 0.0000 (  4839 PWs)   bands (ev):

   -66.7905 -40.9262 -40.8551 -40.7728 -19.5125 -18.4905 -11.0256  -9.4325
    -8.8978  -8.3480  -8.0860  -6.8481  -6.2941  -3.7163  -3.4679  -3.3828
    -2.3725

          k = 0.1014 0.1757 0.0000 (  4843 PWs)   bands (ev):

   -66.7918 -40.9288 -40.8426 -40.7690 -19.5718 -18.5146 -11.0752  -9.3545
    -8.8190  -8.2393  -8.1356  -6.8561  -6.2358  -3.6648  -3.4693  -3.3454
    -2.4565

          k = 0.0942 0.1632 0.0000 (  4837 PWs)   bands (ev):

   -66.7931 -40.9313 -40.8305 -40.7653 -19.6281 -18.5374 -11.1258  -9.2735
    -8.7381  -8.1854  -8.1348  -6.8694  -6.1818  -3.6097  -3.4644  -3.3039
    -2.5395

          k = 0.0870 0.1506 0.0000 (  4841 PWs)   bands (ev):

   -66.7943 -40.9338 -40.8188 -40.7620 -19.6811 -18.5588 -11.1762  -9.1912
    -8.6547  -8.2344  -8.0358  -6.8882  -6.1328  -3.5506  -3.4534  -3.2599
    -2.6206

          k = 0.0797 0.1381 0.0000 (  4841 PWs)   bands (ev):

   -66.7954 -40.9360 -40.8077 -40.7589 -19.7306 -18.5789 -11.2254  -9.1090
    -8.5692  -8.2817  -7.9432  -6.9124  -6.0893  -3.4877  -3.4365  -3.2148
    -2.6990

          k = 0.0725 0.1255 0.0000 (  4837 PWs)   bands (ev):

   -66.7965 -40.9382 -40.7972 -40.7561 -19.7764 -18.5974 -11.2726  -9.0282
    -8.4816  -8.3266  -7.8577  -6.9424  -6.0513  -3.4215  -3.4144  -3.1702
    -2.7737

          k = 0.0652 0.1130 0.0000 (  4829 PWs)   bands (ev):

   -66.7974 -40.9401 -40.7875 -40.7536 -19.8184 -18.6144 -11.3170  -8.9504
    -8.3922  -8.3686  -7.7799  -6.9780  -6.0189  -3.3878  -3.3527  -3.1270
    -2.8440

          k = 0.0580 0.1004 0.0000 (  4823 PWs)   bands (ev):

   -66.7983 -40.9419 -40.7785 -40.7513 -19.8564 -18.6298 -11.3581  -8.8765
    -8.4071  -8.3015  -7.7103  -7.0192  -5.9918  -3.3577  -3.2828  -3.0863
    -2.9090

          k = 0.0507 0.0879 0.0000 (  4825 PWs)   bands (ev):

   -66.7991 -40.9435 -40.7704 -40.7493 -19.8902 -18.6435 -11.3954  -8.8080
    -8.4418  -8.2099  -7.6490  -7.0661  -5.9694  -3.3255  -3.2134  -3.0490
    -2.9682

          k = 0.0435 0.0753 0.0000 (  4829 PWs)   bands (ev):

   -66.7998 -40.9450 -40.7633 -40.7476 -19.9197 -18.6554 -11.4285  -8.7459
    -8.4724  -8.1180  -7.5961  -7.1183  -5.9513  -3.2927  -3.1464  -3.0208
    -3.0155

          k = 0.0362 0.0628 0.0000 (  4817 PWs)   bands (ev):

   -66.8004 -40.9462 -40.7571 -40.7461 -19.9449 -18.6656 -11.4571  -8.6912
    -8.4987  -8.0266  -7.5516  -7.1756  -5.9370  -3.2610  -3.0839  -3.0662
    -2.9865

          k = 0.0290 0.0502 0.0000 (  4817 PWs)   bands (ev):

   -66.8009 -40.9472 -40.7520 -40.7449 -19.9657 -18.6740 -11.4808  -8.6450
    -8.5204  -7.9366  -7.5154  -7.2372  -5.9261  -3.2320  -3.1041  -3.0285
    -2.9622

          k = 0.0217 0.0377 0.0000 (  4821 PWs)   bands (ev):

   -66.8013 -40.9480 -40.7480 -40.7440 -19.9819 -18.6806 -11.4995  -8.6082
    -8.5374  -7.8495  -7.4875  -7.3019  -5.9180  -3.2074  -3.1339  -2.9822
    -2.9431

          k = 0.0145 0.0251 0.0000 (  4823 PWs)   bands (ev):

   -66.8016 -40.9485 -40.7451 -40.7433 -19.9935 -18.6853 -11.5130  -8.5813
    -8.5497  -7.7683  -7.4677  -7.3670  -5.9125  -3.1886  -3.1555  -2.9473
    -2.9293

          k = 0.0072 0.0126 0.0000 (  4823 PWs)   bands (ev):

   -66.8018 -40.9489 -40.7434 -40.7429 -20.0005 -18.6881 -11.5211  -8.5650
    -8.5570  -7.7008  -7.4559  -7.4247  -5.9093  -3.1769  -3.1685  -2.9256
    -2.9210

          k = 0.0000 0.0000 0.0000 (  4811 PWs)   bands (ev):

   -66.8018 -40.9490 -40.7428 -40.7428 -20.0028 -18.6891 -11.5238  -8.5595
    -8.5595  -7.6704  -7.4519  -7.4519  -5.9083  -3.1729  -3.1729  -2.9182
    -2.9182

     Writing output data file aiida.save
 
     init_run     :      1.50s CPU      1.58s WALL (       1 calls)
     electrons    :      7.12s CPU      7.29s WALL (       1 calls)

     Called by init_run:
     wfcinit      :      0.00s CPU      0.00s WALL (       1 calls)
     potinit      :      1.06s CPU      1.09s WALL (       1 calls)

     Called by electrons:
     c_bands      :      7.12s CPU      7.29s WALL (       1 calls)
     v_of_rho     :      0.02s CPU      0.02s WALL (       1 calls)
     v_h          :      0.00s CPU      0.00s WALL (       1 calls)
     v_xc         :      0.02s CPU      0.02s WALL (       1 calls)
     newd         :      0.04s CPU      0.05s WALL (       1 calls)

     Called by c_bands:
     init_us_2    :      0.00s CPU      0.00s WALL (      11 calls)
     ccgdiagg     :      6.38s CPU      6.44s WALL (      37 calls)
     wfcrot       :      0.35s CPU      0.36s WALL (      37 calls)

     Called by sum_band:

     Called by *cgdiagg:
     h_psi        :      5.13s CPU      5.22s WALL (    8346 calls)
     s_psi        :      0.52s CPU      0.57s WALL (   16655 calls)
     cdiaghg      :      0.00s CPU      0.01s WALL (      37 calls)

     Called by h_psi:
     h_psi:vloc   :      4.48s CPU      4.53s WALL (    8346 calls)
     h_psi:vnl    :      0.64s CPU      0.67s WALL (    8346 calls)
     add_vuspsi   :      0.26s CPU      0.28s WALL (    8346 calls)

     General routines
     calbec       :      0.68s CPU      0.72s WALL (   16655 calls)
     fft          :      0.10s CPU      0.11s WALL (      13 calls)
     ffts         :      0.00s CPU      0.00s WALL (       1 calls)
     fftw         :      4.05s CPU      4.07s WALL (   17876 calls)
     interpolate  :      0.00s CPU      0.00s WALL (       1 calls)
     davcio       :      0.00s CPU      0.09s WALL (      11 calls)
 
     Parallel routines
     fft_scatter  :      1.07s CPU      0.88s WALL (   17890 calls)
 
     PWSCF        :     8.96s CPU        10.25s WALL

 
   This run was terminated on:   2:44:45   6Jan2017            

=------------------------------------------------------------------------------=
   JOB DONE.
=------------------------------------------------------------------------------=
