
     Program PWSCF v.6.1 starts on 29Mar2017 at 20:56: 3 

     This program is part of the open-source Quantum ESPRESSO suite
     for quantum simulation of materials; please cite
         "P. Giannozzi et al., J. Phys.:Condens. Matter 21 395502 (2009);
          URL http://www.quantum-espresso.org", 
     in publications or presentations arising from this work. More details at
     http://www.quantum-espresso.org/quote

     Parallel version (MPI & OpenMP), running on      36 processor cores
     Number of MPI processes:                18
     Threads/MPI process:                     2
     R & G space division:  proc/nbgrp/npool/nimage =      18
     Reading input from aiida.in

     Current dimensions of program PWSCF are:
     Max number of different atomic species (ntypx) = 10
     Max number of k-points (npk) =  40000
     Max angular momentum in pseudopotentials (lmaxx) =  3

     Subspace diagonalization in iterative solution of the eigenvalue problem:
     one sub-group per band group will be used
     scalapack distributed-memory algorithm (size of sub-group:  3*  3 procs)

 
     Parallelization info
     --------------------
     sticks:   dense  smooth     PW     G-vecs:    dense   smooth      PW
     Min          33      19      6                 4775     2115     366
     Max          34      20      7                 4800     2146     391
     Sum         595     349    109                86129    38361    6705
 


     bravais-lattice index     =            0
     lattice parameter (alat)  =       6.0182  a.u.
     unit-cell volume          =    1372.4894 (a.u.)^3
     number of atoms/cell      =            3
     number of atomic types    =            2
     number of electrons       =        26.00
     number of Kohn-Sham states=           13
     kinetic-energy cutoff     =      35.0000  Ry
     charge density cutoff     =     240.0000  Ry
     convergence threshold     =      6.0E-10
     mixing beta               =       0.7000
     number of iterations used =            8  plain     mixing
     Exchange-correlation      = SLA  PW   PBE  PBE ( 1  4  3  4 0 0)

     celldm(1)=   6.018249  celldm(2)=   0.000000  celldm(3)=   0.000000
     celldm(4)=   0.000000  celldm(5)=   0.000000  celldm(6)=   0.000000

     crystal axes: (cart. coord. in units of alat)
               a(1) = (   1.000000   0.000000   0.000000 )  
               a(2) = (  -0.500000   0.866025   0.000000 )  
               a(3) = (   0.000000   0.000000   7.270561 )  

     reciprocal axes: (cart. coord. in units 2 pi/alat)
               b(1) = (  1.000000  0.577350  0.000000 )  
               b(2) = (  0.000000  1.154701  0.000000 )  
               b(3) = (  0.000000  0.000000  0.137541 )  


     PseudoPot. # 1 for Mo read from file:
     ./pseudo/Mo_ONCV_PBE-1.0.upf
     MD5 check sum: 4ad9145758a1d467f70cc26f028cba6c
     Pseudo is Norm-conserving, Zval = 14.0
     Generated using ONCVPSP code by D. R. Hamann
     Using radial grid of  602 points,  6 beta functions with: 
                l(1) =   0
                l(2) =   0
                l(3) =   1
                l(4) =   1
                l(5) =   2
                l(6) =   2

     PseudoPot. # 2 for S  read from file:
     ./pseudo/s_pbe_v1.2.uspp.F.UPF
     MD5 check sum: 2e30864c2a0cf3bb4a9e1f7a4cfc7cf0
     Pseudo is Ultrasoft + core correction, Zval =  6.0
     Generated by new atomic code, or converted to UPF format
     Using radial grid of  907 points,  6 beta functions with: 
                l(1) =   0
                l(2) =   0
                l(3) =   1
                l(4) =   1
                l(5) =   2
                l(6) =   2
     Q(r) pseudized with  8 coefficients,  rinner =    1.300   1.300   1.300
                                                       1.300   1.300

     atomic species   valence    mass     pseudopotential
        Mo            14.00    95.94000     Mo( 1.00)
        S              6.00    32.06600     S ( 1.00)

     12 Sym. Ops. (no inversion) found


                                    s                        frac. trans.

      isym =  1     identity                                     

 cryst.   s( 1) = (     1          0          0      )
                  (     0          1          0      )
                  (     0          0          1      )

 cart.    s( 1) = (  1.0000000  0.0000000  0.0000000 )
                  (  0.0000000  1.0000000  0.0000000 )
                  (  0.0000000  0.0000000  1.0000000 )


      isym =  2     180 deg rotation - cart. axis [0,1,0]        

 cryst.   s( 2) = (    -1          0          0      )
                  (     1          1          0      )
                  (     0          0         -1      )

 cart.    s( 2) = ( -1.0000000  0.0000000  0.0000000 )
                  (  0.0000000  1.0000000  0.0000000 )
                  (  0.0000000  0.0000000 -1.0000000 )


      isym =  3     120 deg rotation - cryst. axis [0,0,1]       

 cryst.   s( 3) = (     0          1          0      )
                  (    -1         -1          0      )
                  (     0          0          1      )

 cart.    s( 3) = ( -0.5000000 -0.8660254  0.0000000 )
                  (  0.8660254 -0.5000000  0.0000000 )
                  (  0.0000000  0.0000000  1.0000000 )


      isym =  4     120 deg rotation - cryst. axis [0,0,-1]      

 cryst.   s( 4) = (    -1         -1          0      )
                  (     1          0          0      )
                  (     0          0          1      )

 cart.    s( 4) = ( -0.5000000  0.8660254  0.0000000 )
                  ( -0.8660254 -0.5000000  0.0000000 )
                  (  0.0000000  0.0000000  1.0000000 )


      isym =  5     180 deg rotation - cryst. axis [1,-1,0]      

 cryst.   s( 5) = (     0         -1          0      )
                  (    -1          0          0      )
                  (     0          0         -1      )

 cart.    s( 5) = (  0.5000000 -0.8660254  0.0000000 )
                  ( -0.8660254 -0.5000000  0.0000000 )
                  (  0.0000000  0.0000000 -1.0000000 )


      isym =  6     180 deg rotation - cryst. axis [2,1,0]       

 cryst.   s( 6) = (     1          1          0      )
                  (     0         -1          0      )
                  (     0          0         -1      )

 cart.    s( 6) = (  0.5000000  0.8660254  0.0000000 )
                  (  0.8660254 -0.5000000  0.0000000 )
                  (  0.0000000  0.0000000 -1.0000000 )


      isym =  7     inv. 180 deg rotation - cart. axis [0,0,1]   

 cryst.   s( 7) = (     1          0          0      )
                  (     0          1          0      )
                  (     0          0         -1      )

 cart.    s( 7) = (  1.0000000  0.0000000  0.0000000 )
                  (  0.0000000  1.0000000  0.0000000 )
                  (  0.0000000  0.0000000 -1.0000000 )


      isym =  8     inv. 180 deg rotation - cart. axis [1,0,0]   

 cryst.   s( 8) = (    -1          0          0      )
                  (     1          1          0      )
                  (     0          0          1      )

 cart.    s( 8) = ( -1.0000000  0.0000000  0.0000000 )
                  (  0.0000000  1.0000000  0.0000000 )
                  (  0.0000000  0.0000000  1.0000000 )


      isym =  9     inv.  60 deg rotation - cryst. axis [0,0,1]  

 cryst.   s( 9) = (    -1         -1          0      )
                  (     1          0          0      )
                  (     0          0         -1      )

 cart.    s( 9) = ( -0.5000000  0.8660254  0.0000000 )
                  ( -0.8660254 -0.5000000  0.0000000 )
                  (  0.0000000  0.0000000 -1.0000000 )


      isym = 10     inv.  60 deg rotation - cryst. axis [0,0,-1] 

 cryst.   s(10) = (     0          1          0      )
                  (    -1         -1          0      )
                  (     0          0         -1      )

 cart.    s(10) = ( -0.5000000 -0.8660254  0.0000000 )
                  (  0.8660254 -0.5000000  0.0000000 )
                  (  0.0000000  0.0000000 -1.0000000 )


      isym = 11     inv. 180 deg rotation - cryst. axis [0,1,0]  

 cryst.   s(11) = (     1          1          0      )
                  (     0         -1          0      )
                  (     0          0          1      )

 cart.    s(11) = (  0.5000000  0.8660254  0.0000000 )
                  (  0.8660254 -0.5000000  0.0000000 )
                  (  0.0000000  0.0000000  1.0000000 )


      isym = 12     inv. 180 deg rotation - cryst. axis [1,1,0]  

 cryst.   s(12) = (     0         -1          0      )
                  (    -1          0          0      )
                  (     0          0          1      )

 cart.    s(12) = (  0.5000000 -0.8660254  0.0000000 )
                  ( -0.8660254 -0.5000000  0.0000000 )
                  (  0.0000000  0.0000000  1.0000000 )


   Cartesian axes

     site n.     atom                  positions (alat units)
         1           Mo  tau(   1) = (   0.0000000   0.5773503   3.6352805  )
         2           S   tau(   2) = (   0.5000000   0.2886751   3.1443707  )
         3           S   tau(   3) = (   0.5000000   0.2886751   4.1261902  )

   Crystallographic axes

     site n.     atom                  positions (cryst. coord.)
         1           Mo  tau(   1) = (  0.3333333  0.6666667  0.5000000  )
         2           S   tau(   2) = (  0.6666667  0.3333333  0.4324798  )
         3           S   tau(   3) = (  0.6666667  0.3333333  0.5675202  )

     number of k points=    19
                       cart. coord. in units 2pi/alat
        k(    1) = (   0.0000000   0.0000000   0.0000000), wk =   0.0138889
        k(    2) = (   0.0000000   0.0962250   0.0000000), wk =   0.0833333
        k(    3) = (   0.0000000   0.1924501   0.0000000), wk =   0.0833333
        k(    4) = (   0.0000000   0.2886751   0.0000000), wk =   0.0833333
        k(    5) = (   0.0000000   0.3849002   0.0000000), wk =   0.0833333
        k(    6) = (   0.0000000   0.4811252   0.0000000), wk =   0.0833333
        k(    7) = (   0.0000000  -0.5773503   0.0000000), wk =   0.0416667
        k(    8) = (   0.0833333   0.1443376   0.0000000), wk =   0.0833333
        k(    9) = (   0.0833333   0.2405626   0.0000000), wk =   0.1666667
        k(   10) = (   0.0833333   0.3367877   0.0000000), wk =   0.1666667
        k(   11) = (   0.0833333   0.4330127   0.0000000), wk =   0.1666667
        k(   12) = (   0.0833333   0.5292377   0.0000000), wk =   0.1666667
        k(   13) = (   0.1666667   0.2886751   0.0000000), wk =   0.0833333
        k(   14) = (   0.1666667   0.3849002   0.0000000), wk =   0.1666667
        k(   15) = (   0.1666667   0.4811252   0.0000000), wk =   0.1666667
        k(   16) = (   0.1666667   0.5773503   0.0000000), wk =   0.0833333
        k(   17) = (   0.2500000   0.4330127   0.0000000), wk =   0.0833333
        k(   18) = (   0.2500000   0.5292377   0.0000000), wk =   0.1666667
        k(   19) = (   0.3333333   0.5773503   0.0000000), wk =   0.0277778

                       cryst. coord.
        k(    1) = (   0.0000000   0.0000000   0.0000000), wk =   0.0138889
        k(    2) = (   0.0000000   0.0833333   0.0000000), wk =   0.0833333
        k(    3) = (   0.0000000   0.1666667   0.0000000), wk =   0.0833333
        k(    4) = (   0.0000000   0.2500000   0.0000000), wk =   0.0833333
        k(    5) = (   0.0000000   0.3333333   0.0000000), wk =   0.0833333
        k(    6) = (   0.0000000   0.4166667   0.0000000), wk =   0.0833333
        k(    7) = (   0.0000000  -0.5000000   0.0000000), wk =   0.0416667
        k(    8) = (   0.0833333   0.0833333   0.0000000), wk =   0.0833333
        k(    9) = (   0.0833333   0.1666667   0.0000000), wk =   0.1666667
        k(   10) = (   0.0833333   0.2500000   0.0000000), wk =   0.1666667
        k(   11) = (   0.0833333   0.3333333   0.0000000), wk =   0.1666667
        k(   12) = (   0.0833333   0.4166667   0.0000000), wk =   0.1666667
        k(   13) = (   0.1666667   0.1666667   0.0000000), wk =   0.0833333
        k(   14) = (   0.1666667   0.2500000   0.0000000), wk =   0.1666667
        k(   15) = (   0.1666667   0.3333333   0.0000000), wk =   0.1666667
        k(   16) = (   0.1666667   0.4166667   0.0000000), wk =   0.0833333
        k(   17) = (   0.2500000   0.2500000   0.0000000), wk =   0.0833333
        k(   18) = (   0.2500000   0.3333333   0.0000000), wk =   0.1666667
        k(   19) = (   0.3333333   0.3333333   0.0000000), wk =   0.0277778

     Dense  grid:    86129 G-vectors     FFT dimensions: (  30,  30, 216)

     Smooth grid:    38361 G-vectors     FFT dimensions: (  24,  24, 180)

     Estimated max dynamical RAM per process >       4.43MB

     Estimated total allocated dynamical RAM >      79.80MB
 ----2D----2D----2D----2D----2D----2D
 THE CODE IS RUNNING WITH 2D CUTOFF
 ----2D----2D----2D----2D----2D----2D

     Initial potential from superposition of free atoms
     Check: negative starting charge=   -0.000105

     starting charge   25.90506, renormalised to   26.00000

     negative rho (up, down):  1.056E-04 0.000E+00
     Starting wfc are    8 randomized atomic wfcs +    5 random wfc

     total cpu time spent up to now is        0.7 secs

     per-process dynamical memory:     3.3 Mb

     Self-consistent Calculation

     iteration #  1     ecut=    35.00 Ry     beta=0.70
     Davidson diagonalization with overlap
     ethr =  1.00E-02,  avg # of iterations =  7.2

     Threshold (ethr) on eigenvalues was too large:
     Diagonalizing with lowered threshold

     Davidson diagonalization with overlap
     ethr =  5.87E-04,  avg # of iterations =  4.7

     negative rho (up, down):  1.579E-05 0.000E+00

     total cpu time spent up to now is        2.4 secs

     total energy              =    -190.76343764 Ry
     Harris-Foulkes estimate   =    -190.82361717 Ry
     estimated scf accuracy    <       0.09665748 Ry

     iteration #  2     ecut=    35.00 Ry     beta=0.70
     Davidson diagonalization with overlap
     ethr =  3.72E-04,  avg # of iterations =  4.4

     negative rho (up, down):  2.010E-05 0.000E+00

     total cpu time spent up to now is        3.2 secs

     total energy              =    -190.76672702 Ry
     Harris-Foulkes estimate   =    -190.82156543 Ry
     estimated scf accuracy    <       0.11007160 Ry

     iteration #  3     ecut=    35.00 Ry     beta=0.70
     Davidson diagonalization with overlap
     ethr =  3.72E-04,  avg # of iterations =  3.7

     negative rho (up, down):  2.034E-05 0.000E+00

     total cpu time spent up to now is        3.9 secs

     total energy              =    -190.78398908 Ry
     Harris-Foulkes estimate   =    -190.81462037 Ry
     estimated scf accuracy    <       0.10187531 Ry

     iteration #  4     ecut=    35.00 Ry     beta=0.70
     Davidson diagonalization with overlap
     ethr =  3.72E-04,  avg # of iterations =  2.9

     negative rho (up, down):  1.815E-05 0.000E+00

     total cpu time spent up to now is        4.5 secs

     total energy              =    -190.79741396 Ry
     Harris-Foulkes estimate   =    -190.79803082 Ry
     estimated scf accuracy    <       0.00146893 Ry

     iteration #  5     ecut=    35.00 Ry     beta=0.70
     Davidson diagonalization with overlap
     ethr =  5.65E-06,  avg # of iterations =  5.8

     negative rho (up, down):  2.116E-05 0.000E+00

     total cpu time spent up to now is        5.4 secs

     total energy              =    -190.79942013 Ry
     Harris-Foulkes estimate   =    -190.79990495 Ry
     estimated scf accuracy    <       0.00182621 Ry

     iteration #  6     ecut=    35.00 Ry     beta=0.70
     Davidson diagonalization with overlap
     ethr =  5.65E-06,  avg # of iterations =  2.4

     negative rho (up, down):  2.439E-05 0.000E+00

     total cpu time spent up to now is        5.9 secs

     total energy              =    -190.79945230 Ry
     Harris-Foulkes estimate   =    -190.79954439 Ry
     estimated scf accuracy    <       0.00031453 Ry

     iteration #  7     ecut=    35.00 Ry     beta=0.70
     Davidson diagonalization with overlap
     ethr =  1.21E-06,  avg # of iterations =  4.2

     negative rho (up, down):  2.627E-05 0.000E+00

     total cpu time spent up to now is        6.6 secs

     total energy              =    -190.79955499 Ry
     Harris-Foulkes estimate   =    -190.79956640 Ry
     estimated scf accuracy    <       0.00007082 Ry

     iteration #  8     ecut=    35.00 Ry     beta=0.70
     Davidson diagonalization with overlap
     ethr =  2.72E-07,  avg # of iterations =  1.8

     negative rho (up, down):  2.640E-05 0.000E+00

     total cpu time spent up to now is        7.0 secs

     total energy              =    -190.79955020 Ry
     Harris-Foulkes estimate   =    -190.79955893 Ry
     estimated scf accuracy    <       0.00003791 Ry

     iteration #  9     ecut=    35.00 Ry     beta=0.70
     Davidson diagonalization with overlap
     ethr =  1.46E-07,  avg # of iterations =  3.5

     negative rho (up, down):  2.647E-05 0.000E+00

     total cpu time spent up to now is        7.6 secs

     total energy              =    -190.79955822 Ry
     Harris-Foulkes estimate   =    -190.79955831 Ry
     estimated scf accuracy    <       0.00000114 Ry

     iteration # 10     ecut=    35.00 Ry     beta=0.70
     Davidson diagonalization with overlap
     ethr =  4.38E-09,  avg # of iterations =  3.6

     negative rho (up, down):  2.670E-05 0.000E+00

     total cpu time spent up to now is        8.3 secs

     total energy              =    -190.79955865 Ry
     Harris-Foulkes estimate   =    -190.79955891 Ry
     estimated scf accuracy    <       0.00000109 Ry

     iteration # 11     ecut=    35.00 Ry     beta=0.70
     Davidson diagonalization with overlap
     ethr =  4.19E-09,  avg # of iterations =  2.5

     negative rho (up, down):  2.680E-05 0.000E+00

     total cpu time spent up to now is        8.8 secs

     total energy              =    -190.79955865 Ry
     Harris-Foulkes estimate   =    -190.79955872 Ry
     estimated scf accuracy    <       0.00000013 Ry

     iteration # 12     ecut=    35.00 Ry     beta=0.70
     Davidson diagonalization with overlap
     ethr =  4.87E-10,  avg # of iterations =  4.6

     negative rho (up, down):  2.675E-05 0.000E+00

     total cpu time spent up to now is        9.6 secs

     total energy              =    -190.79955870 Ry
     Harris-Foulkes estimate   =    -190.79955884 Ry
     estimated scf accuracy    <       0.00000071 Ry

     iteration # 13     ecut=    35.00 Ry     beta=0.70
     Davidson diagonalization with overlap
     ethr =  4.87E-10,  avg # of iterations =  3.7

     negative rho (up, down):  2.674E-05 0.000E+00

     total cpu time spent up to now is       10.3 secs

     total energy              =    -190.79955873 Ry
     Harris-Foulkes estimate   =    -190.79955874 Ry
     estimated scf accuracy    <       0.00000007 Ry

     iteration # 14     ecut=    35.00 Ry     beta=0.70
     Davidson diagonalization with overlap
     ethr =  2.76E-10,  avg # of iterations =  1.0

     negative rho (up, down):  2.674E-05 0.000E+00

     total cpu time spent up to now is       10.7 secs

     total energy              =    -190.79955873 Ry
     Harris-Foulkes estimate   =    -190.79955873 Ry
     estimated scf accuracy    <       0.00000004 Ry

     iteration # 15     ecut=    35.00 Ry     beta=0.70
     Davidson diagonalization with overlap
     ethr =  1.46E-10,  avg # of iterations =  3.0

     negative rho (up, down):  2.673E-05 0.000E+00

     total cpu time spent up to now is       11.2 secs

     total energy              =    -190.79955873 Ry
     Harris-Foulkes estimate   =    -190.79955873 Ry
     estimated scf accuracy    <          6.5E-09 Ry

     iteration # 16     ecut=    35.00 Ry     beta=0.70
     Davidson diagonalization with overlap
     ethr =  2.50E-11,  avg # of iterations =  3.5

     negative rho (up, down):  2.673E-05 0.000E+00

     total cpu time spent up to now is       11.8 secs

     total energy              =    -190.79955873 Ry
     Harris-Foulkes estimate   =    -190.79955873 Ry
     estimated scf accuracy    <          6.7E-10 Ry

     iteration # 17     ecut=    35.00 Ry     beta=0.70
     Davidson diagonalization with overlap
     ethr =  2.56E-12,  avg # of iterations =  1.4

     negative rho (up, down):  2.673E-05 0.000E+00

     total cpu time spent up to now is       12.3 secs

     total energy              =    -190.79955873 Ry
     Harris-Foulkes estimate   =    -190.79955873 Ry
     estimated scf accuracy    <          7.1E-10 Ry

     iteration # 18     ecut=    35.00 Ry     beta=0.70
     Davidson diagonalization with overlap
     ethr =  2.56E-12,  avg # of iterations =  3.6

     negative rho (up, down):  2.673E-05 0.000E+00

     total cpu time spent up to now is       12.9 secs

     total energy              =    -190.79955873 Ry
     Harris-Foulkes estimate   =    -190.79955873 Ry
     estimated scf accuracy    <          3.6E-09 Ry

     iteration # 19     ecut=    35.00 Ry     beta=0.70
     Davidson diagonalization with overlap
     ethr =  2.56E-12,  avg # of iterations =  1.0

     negative rho (up, down):  2.673E-05 0.000E+00

     total cpu time spent up to now is       13.3 secs

     total energy              =    -190.79955873 Ry
     Harris-Foulkes estimate   =    -190.79955873 Ry
     estimated scf accuracy    <          3.6E-09 Ry

     iteration # 20     ecut=    35.00 Ry     beta=0.70
     Davidson diagonalization with overlap
     ethr =  2.56E-12,  avg # of iterations =  1.0

     negative rho (up, down):  2.673E-05 0.000E+00

     total cpu time spent up to now is       13.8 secs

     total energy              =    -190.79955873 Ry
     Harris-Foulkes estimate   =    -190.79955873 Ry
     estimated scf accuracy    <          3.7E-09 Ry

     iteration # 21     ecut=    35.00 Ry     beta=0.70
     Davidson diagonalization with overlap
     ethr =  2.56E-12,  avg # of iterations =  1.0

     negative rho (up, down):  2.673E-05 0.000E+00

     total cpu time spent up to now is       14.2 secs

     total energy              =    -190.79955874 Ry
     Harris-Foulkes estimate   =    -190.79955873 Ry
     estimated scf accuracy    <          5.0E-09 Ry

     iteration # 22     ecut=    35.00 Ry     beta=0.70
     Davidson diagonalization with overlap
     ethr =  2.56E-12,  avg # of iterations =  1.0

     negative rho (up, down):  2.673E-05 0.000E+00

     total cpu time spent up to now is       14.6 secs

     total energy              =    -190.79955874 Ry
     Harris-Foulkes estimate   =    -190.79955874 Ry
     estimated scf accuracy    <          5.6E-09 Ry

     iteration # 23     ecut=    35.00 Ry     beta=0.70
     Davidson diagonalization with overlap
     ethr =  2.56E-12,  avg # of iterations =  3.2

     negative rho (up, down):  2.673E-05 0.000E+00

     total cpu time spent up to now is       15.2 secs

     total energy              =    -190.79955874 Ry
     Harris-Foulkes estimate   =    -190.79955874 Ry
     estimated scf accuracy    <       0.00000001 Ry

     iteration # 24     ecut=    35.00 Ry     beta=0.70
     Davidson diagonalization with overlap
     ethr =  2.56E-12,  avg # of iterations =  1.0

     negative rho (up, down):  2.673E-05 0.000E+00

     total cpu time spent up to now is       15.6 secs

     total energy              =    -190.79955873 Ry
     Harris-Foulkes estimate   =    -190.79955874 Ry
     estimated scf accuracy    <          1.0E-08 Ry

     iteration # 25     ecut=    35.00 Ry     beta=0.70
     Davidson diagonalization with overlap
     ethr =  2.56E-12,  avg # of iterations =  4.5

     negative rho (up, down):  2.673E-05 0.000E+00

     total cpu time spent up to now is       16.5 secs

     End of self-consistent calculation

          k = 0.0000 0.0000 0.0000 (  4787 PWs)   bands (ev):

   -66.8122 -40.9537 -40.7534 -40.7534 -20.0135 -18.7125 -11.5357  -8.5491
    -8.5491  -7.7023  -7.4400  -7.4400  -5.9404

     occupation numbers 
     1.0000   1.0000   1.0000   1.0000   1.0000   1.0000   1.0000   1.0000
     1.0000   1.0000   1.0000   1.0000   1.0000

          k = 0.0000 0.0962 0.0000 (  4821 PWs)   bands (ev):

   -66.8097 -40.9487 -40.7787 -40.7591 -19.9117 -18.6708 -11.4190  -8.7766
    -8.4420  -8.1947  -7.6027  -7.1048  -5.9925

     occupation numbers 
     1.0000   1.0000   1.0000   1.0000   1.0000   1.0000   1.0000   1.0000
     1.0000   1.0000   1.0000   1.0000   1.0000

          k = 0.0000 0.1925 0.0000 (  4814 PWs)   bands (ev):

   -66.8029 -40.9352 -40.8474 -40.7748 -19.6222 -18.5523 -11.1256  -9.2987
    -8.8400  -8.1433  -7.9863  -7.0138  -6.2269

     occupation numbers 
     1.0000   1.0000   1.0000   1.0000   1.0000   1.0000   1.0000   1.0000
     1.0000   1.0000   1.0000   1.0000   1.0000

          k = 0.0000 0.2887 0.0000 (  4832 PWs)   bands (ev):

   -66.7937 -40.9399 -40.9167 -40.7962 -19.1942 -18.3785 -10.9158  -9.7423
    -9.4952  -8.4168  -7.7243  -7.2565  -6.6562

     occupation numbers 
     1.0000   1.0000   1.0000   1.0000   1.0000   1.0000   1.0000   1.0000
     1.0000   1.0000   1.0000   1.0000   1.0000

          k = 0.0000 0.3849 0.0000 (  4778 PWs)   bands (ev):

   -66.7844 -41.0312 -40.8981 -40.8175 -18.7148 -18.1875 -11.1603 -10.0998
    -9.8289  -8.7793  -7.5537  -7.3042  -6.9034

     occupation numbers 
     1.0000   1.0000   1.0000   1.0000   1.0000   1.0000   1.0000   1.0000
     1.0000   1.0000   1.0000   1.0000   1.0000

          k = 0.0000 0.4811 0.0000 (  4794 PWs)   bands (ev):

   -66.7776 -41.0971 -40.8844 -40.8330 -18.3170 -18.0342 -11.5313 -10.5413
    -9.9211  -9.0148  -7.7427  -7.0119  -6.7343

     occupation numbers 
     1.0000   1.0000   1.0000   1.0000   1.0000   1.0000   1.0000   1.0000
     1.0000   1.0000   1.0000   1.0000   1.0000

          k = 0.0000-0.5774 0.0000 (  4780 PWs)   bands (ev):

   -66.7751 -41.1211 -40.8794 -40.8386 -18.1578 -17.9747 -11.6890 -10.7046
    -9.9950  -9.0960  -7.8033  -6.9121  -6.5686

     occupation numbers 
     1.0000   1.0000   1.0000   1.0000   1.0000   1.0000   1.0000   1.0000
     1.0000   1.0000   1.0000   1.0000   1.0000

          k = 0.0833 0.1443 0.0000 (  4831 PWs)   bands (ev):

   -66.8051 -40.9395 -40.8244 -40.7712 -19.7160 -18.5906 -11.2102  -9.1443
    -8.6232  -8.2472  -7.9804  -6.9133  -6.1366

     occupation numbers 
     1.0000   1.0000   1.0000   1.0000   1.0000   1.0000   1.0000   1.0000
     1.0000   1.0000   1.0000   1.0000   1.0000

          k = 0.0833 0.2406 0.0000 (  4823 PWs)   bands (ev):

   -66.7971 -40.9235 -40.9017 -40.7930 -19.3562 -18.4434 -10.9273  -9.6125
    -9.1655  -8.5206  -7.9360  -6.9421  -6.4817

     occupation numbers 
     1.0000   1.0000   1.0000   1.0000   1.0000   1.0000   1.0000   1.0000
     1.0000   1.0000   1.0000   1.0000   1.0000

          k = 0.0833 0.3368 0.0000 (  4805 PWs)   bands (ev):

   -66.7878 -40.9896 -40.9049 -40.8183 -18.8990 -18.2579 -10.9538  -9.8142
    -9.7862  -8.8786  -7.6855  -7.2333  -6.7837

     occupation numbers 
     1.0000   1.0000   1.0000   1.0000   1.0000   1.0000   1.0000   1.0000
     1.0000   1.0000   1.0000   1.0000   1.0000

          k = 0.0833 0.4330 0.0000 (  4789 PWs)   bands (ev):

   -66.7797 -41.0648 -40.8887 -40.8401 -18.4525 -18.0805 -11.2939 -10.4004
    -9.8149  -9.0445  -7.5603  -7.5601  -6.6832

     occupation numbers 
     1.0000   1.0000   1.0000   1.0000   1.0000   1.0000   1.0000   1.0000
     1.0000   1.0000   1.0000   1.0000   1.0000

          k = 0.0833 0.5292 0.0000 (  4812 PWs)   bands (ev):

   -66.7751 -41.1078 -40.8794 -40.8526 -18.1647 -17.9693 -11.5511 -10.7413
    -9.9371  -9.1003  -7.7612  -7.4322  -6.4425

     occupation numbers 
     1.0000   1.0000   1.0000   1.0000   1.0000   1.0000   1.0000   1.0000
     1.0000   1.0000   1.0000   1.0000   1.0000

          k = 0.1667 0.2887 0.0000 (  4807 PWs)   bands (ev):

   -66.7890 -40.9684 -40.9074 -40.8247 -18.9648 -18.2822 -10.8501  -9.7511
    -9.5940  -9.1111  -7.9017  -6.9793  -6.7245

     occupation numbers 
     1.0000   1.0000   1.0000   1.0000   1.0000   1.0000   1.0000   1.0000
     1.0000   1.0000   1.0000   1.0000   1.0000

          k = 0.1667 0.3849 0.0000 (  4782 PWs)   bands (ev):

   -66.7810 -41.0310 -40.8913 -40.8596 -18.5314 -18.1035 -11.0363 -10.2848
    -9.6555  -9.2139  -8.1652  -7.2785  -6.6841

     occupation numbers 
     1.0000   1.0000   1.0000   1.0000   1.0000   1.0000   1.0000   1.0000
     1.0000   1.0000   1.0000   1.0000   1.0000

          k = 0.1667 0.4811 0.0000 (  4787 PWs)   bands (ev):

   -66.7751 -41.0753 -40.8864 -40.8794 -18.1783 -17.9584 -11.2282 -10.8085
    -9.7578  -9.1322  -8.2885  -7.6426  -6.4356

     occupation numbers 
     1.0000   1.0000   1.0000   1.0000   1.0000   1.0000   1.0000   1.0000
     1.0000   1.0000   1.0000   1.0000   1.0000

          k = 0.1667 0.5774 0.0000 (  4794 PWs)   bands (ev):

   -66.7729 -41.0912 -40.8963 -40.8751 -18.0393 -17.9016 -11.2972 -10.9986
    -9.8778  -9.0618  -8.2850  -7.8168  -6.2586

     occupation numbers 
     1.0000   1.0000   1.0000   1.0000   1.0000   1.0000   1.0000   1.0000
     1.0000   1.0000   1.0000   1.0000   1.0000

          k = 0.2500 0.4330 0.0000 (  4778 PWs)   bands (ev):

   -66.7751 -41.0536 -40.9087 -40.8794 -18.1850 -17.9529 -11.0333 -10.8395
    -9.5368  -9.1569  -8.8371  -7.5676  -6.4584

     occupation numbers 
     1.0000   1.0000   1.0000   1.0000   1.0000   1.0000   1.0000   1.0000
     1.0000   1.0000   1.0000   1.0000   1.0000

          k = 0.2500 0.5292 0.0000 (  4776 PWs)   bands (ev):

   -66.7717 -41.0582 -40.9454 -40.8726 -17.9709 -17.8570 -11.1810 -10.9032
    -9.7450  -9.1390  -8.9610  -7.8977  -6.1488

     occupation numbers 
     1.0000   1.0000   1.0000   1.0000   1.0000   1.0000   1.0000   1.0000
     1.0000   1.0000   1.0000   1.0000   1.0000

          k = 0.3333 0.5774 0.0000 (  4782 PWs)   bands (ev):

   -66.7705 -41.0307 -40.9883 -40.8701 -17.8939 -17.8168 -11.3270 -10.5093
    -9.9897  -9.4870  -8.8012  -8.0859  -5.9580

     occupation numbers 
     1.0000   1.0000   1.0000   1.0000   1.0000   1.0000   1.0000   1.0000
     1.0000   1.0000   1.0000   1.0000   1.0000

     highest occupied level (ev):    -5.9404

!    total energy              =    -190.79955873 Ry
     Harris-Foulkes estimate   =    -190.79955873 Ry
     estimated scf accuracy    <          3.5E-11 Ry

     The total energy is the sum of the following terms:

     one-electron contribution =   -2306.72277900 Ry
     hartree contribution      =    1148.61401955 Ry
     xc contribution           =     -37.89490012 Ry
     ewald contribution        =    1005.20410084 Ry

     convergence has been achieved in  25 iterations

     Writing output data file aiida.save
 
     init_run     :      0.80s CPU      0.47s WALL (       1 calls)
     electrons    :     30.04s CPU     15.79s WALL (       1 calls)

     Called by init_run:
     wfcinit      :      0.28s CPU      0.15s WALL (       1 calls)
     wfcinit:atom :      0.01s CPU      0.00s WALL (      19 calls)
     wfcinit:wfcr :      0.26s CPU      0.15s WALL (      19 calls)
     potinit      :      0.23s CPU      0.11s WALL (       1 calls)

     Called by electrons:
     c_bands      :     24.72s CPU     12.75s WALL (      26 calls)
     sum_band     :      3.80s CPU      2.10s WALL (      26 calls)
     v_of_rho     :      0.47s CPU      0.24s WALL (      26 calls)
     v_h          :      0.06s CPU      0.03s WALL (      26 calls)
     v_xc         :      0.41s CPU      0.22s WALL (      26 calls)
     newd         :      0.88s CPU      0.59s WALL (      26 calls)
     mix_rho      :      0.11s CPU      0.05s WALL (      26 calls)

     Called by c_bands:
     init_us_2    :      0.26s CPU      0.14s WALL (    1007 calls)
     cegterg      :     23.54s CPU     12.13s WALL (     494 calls)

     Called by sum_band:
     sum_band:bec :      0.02s CPU      0.01s WALL (     494 calls)
     addusdens    :      0.92s CPU      0.58s WALL (      26 calls)

     Called by *egterg:
     h_psi        :     14.60s CPU      7.54s WALL (    2037 calls)
     s_psi        :      0.32s CPU      0.16s WALL (    2037 calls)
     g_psi        :      0.04s CPU      0.02s WALL (    1524 calls)
     cdiaghg      :      7.05s CPU      3.60s WALL (    1999 calls)
     cegterg:over :      0.46s CPU      0.24s WALL (    1524 calls)
     cegterg:upda :      0.51s CPU      0.28s WALL (    1524 calls)
     cegterg:last :      0.15s CPU      0.09s WALL (     518 calls)
     cdiaghg:chol :      0.38s CPU      0.22s WALL (    1999 calls)
     cdiaghg:inve :      0.30s CPU      0.14s WALL (    1999 calls)
     cdiaghg:para :      0.38s CPU      0.21s WALL (    3998 calls)

     Called by h_psi:
     h_psi:pot    :     14.58s CPU      7.53s WALL (    2037 calls)
     h_psi:calbec :      0.53s CPU      0.27s WALL (    2037 calls)
     vloc_psi     :     13.69s CPU      7.08s WALL (    2037 calls)
     add_vuspsi   :      0.33s CPU      0.17s WALL (    2037 calls)

     General routines
     calbec       :      0.67s CPU      0.35s WALL (    2531 calls)
     fft          :      0.68s CPU      0.39s WALL (     416 calls)
     ffts         :      0.06s CPU      0.03s WALL (      52 calls)
     fftw         :     15.11s CPU      7.86s WALL (   42544 calls)
     interpolate  :      0.12s CPU      0.07s WALL (      52 calls)
     davcio       :      0.01s CPU      0.01s WALL (      19 calls)
 
     Parallel routines
     fft_scatter  :      4.84s CPU      2.50s WALL (   43012 calls)
 
     PWSCF        :    31.23s CPU        16.73s WALL

 
   This run was terminated on:  20:56:20  29Mar2017            

=------------------------------------------------------------------------------=
   JOB DONE.
=------------------------------------------------------------------------------=
