
     Program PWSCF v.6.1 starts on 29Jun2017 at 22:53: 9 

     This program is part of the open-source Quantum ESPRESSO suite
     for quantum simulation of materials; please cite
         "P. Giannozzi et al., J. Phys.:Condens. Matter 21 395502 (2009);
          URL http://www.quantum-espresso.org", 
     in publications or presentations arising from this work. More details at
     http://www.quantum-espresso.org/quote

     Parallel version (MPI & OpenMP), running on      12 processor cores
     Number of MPI processes:                12
     Threads/MPI process:                     1
     R & G space division:  proc/nbgrp/npool/nimage =      12
     Reading input from aiida.in

     Current dimensions of program PWSCF are:
     Max number of different atomic species (ntypx) = 10
     Max number of k-points (npk) =  40000
     Max angular momentum in pseudopotentials (lmaxx) =  3
     Message from routine input:
     WARNING: "startingwfc" set to atomic+random may spoil restart

     Atomic positions and unit cell read from directory:
     ./out/aiida.save/
 

     Subspace diagonalization in iterative solution of the eigenvalue problem:
     one sub-group per band group will be used
     scalapack distributed-memory algorithm (size of sub-group:  2*  2 procs)

 
     Parallelization info
     --------------------
     sticks:   dense  smooth     PW     G-vecs:    dense   smooth      PW
     Min         172      85     24                31911    11267    1740
     Max         173      86     25                31920    11272    1753
     Sum        2065    1025    299               383007   135241   20965
 


     bravais-lattice index     =            0
     lattice parameter (alat)  =       6.4087  a.u.
     unit-cell volume          =    2456.8776 (a.u.)^3
     number of atoms/cell      =            4
     number of atomic types    =            3
     number of electrons       =        36.00
     number of Kohn-Sham states=           22
     kinetic-energy cutoff     =      55.0000  Ry
     charge density cutoff     =     440.0000  Ry
     Exchange-correlation      = SLA  PW   PBE  PBE ( 1  4  3  4 0 0)

     celldm(1)=   6.408676  celldm(2)=   0.000000  celldm(3)=   0.000000
     celldm(4)=   0.000000  celldm(5)=   0.000000  celldm(6)=   0.000000

     crystal axes: (cart. coord. in units of alat)
               a(1) = (   0.995987   0.089503   0.000000 )  
               a(2) = (   0.134888   1.447985   0.000000 )  
               a(3) = (   0.000000   0.000000   6.526972 )  

     reciprocal axes: (cart. coord. in units 2 pi/alat)
               b(1) = (  1.012506 -0.094321  0.000000 )  
               b(2) = ( -0.062585  0.696445  0.000000 )  
               b(3) = (  0.000000  0.000000  0.153210 )  


     PseudoPot. # 1 for Ag read from file:
     ./pseudo/ag_pbe_v1.4.uspp.F.UPF
     MD5 check sum: d66d668201baa78d5eb5b04ef7011058
     Pseudo is Ultrasoft + core correction, Zval = 19.0
     Generated by new atomic code, or converted to UPF format
     Using radial grid of  887 points,  6 beta functions with: 
                l(1) =   0
                l(2) =   0
                l(3) =   1
                l(4) =   1
                l(5) =   2
                l(6) =   2
     Q(r) pseudized with  6 coefficients,  rinner =    1.300   1.300   1.300
                                                       1.300   1.300

     PseudoPot. # 2 for  N read from file:
     ./pseudo/N.pbe.theos.UPF
     MD5 check sum: 1fde47ee573fe9ed3106b9b4217eb757
     Pseudo is Ultrasoft + core correction, Zval =  5.0
     Generated using "atomic" code by A. Dal Corso  v.5.1
     Using radial grid of 1085 points,  4 beta functions with: 
                l(1) =   0
                l(2) =   0
                l(3) =   1
                l(4) =   1
     Q(r) pseudized with 0 coefficients 


     PseudoPot. # 3 for O  read from file:
     ./pseudo/O_pbe_v1.2.uspp.F.UPF
     MD5 check sum: 734c27235a0248c51dbae37a1fbe46ec
     Pseudo is Ultrasoft + core correction, Zval =  6.0
     Generated by new atomic code, or converted to UPF format
     Using radial grid of  737 points,  5 beta functions with: 
                l(1) =   0
                l(2) =   0
                l(3) =   1
                l(4) =   1
                l(5) =   2
     Q(r) pseudized with  8 coefficients,  rinner =    0.900   0.900   0.900
                                                       0.900   0.900

     atomic species   valence    mass     pseudopotential
        Ag            19.00   107.86800     Ag( 1.00)
        N              5.00    14.00670      N( 1.00)
        O              6.00    15.99940     O ( 1.00)

     No symmetry found


                                    s                        frac. trans.

      isym =  1     identity                                     

 cryst.   s( 1) = (     1          0          0      )
                  (     0          1          0      )
                  (     0          0          1      )

 cart.    s( 1) = (  1.0000000  0.0000000  0.0000000 )
                  ( -0.0000000  1.0000000  0.0000000 )
                  (  0.0000000  0.0000000  1.0000000 )


   Cartesian axes

     site n.     atom                  positions (alat units)
         1           O   tau(   1) = (   0.3477541   0.1162668   3.5996371  )
         2           Ag  tau(   2) = (   0.6086335   0.7881073   3.2026757  )
         3           N   tau(   3) = (   0.6137789   1.4069366   3.3027802  )
         4           O   tau(   4) = (   0.6228736   0.1745304   3.0277932  )

   Crystallographic axes

     site n.     atom                  positions (cryst. coord.)
         1           O   tau(   1) = (  0.3411366  0.0592093  0.5515019  )
         2           Ag  tau(   2) = (  0.5419101  0.5107820  0.4906833  )
         3           N   tau(   3) = (  0.4887515  0.9414404  0.5060203  )
         4           O   tau(   4) = (  0.6142012  0.0825683  0.4638894  )

     number of k points=   169  Marzari-Vanderbilt smearing, width (Ry)=  0.0200
                       cart. coord. in units 2pi/alat
        k(    1) = (   0.5062528  -0.0471603   0.0000000), wk =   0.0118343
        k(    2) = (   0.4959211  -0.0461978   0.0000000), wk =   0.0118343
        k(    3) = (   0.4855894  -0.0452354   0.0000000), wk =   0.0118343
        k(    4) = (   0.4752577  -0.0442729   0.0000000), wk =   0.0118343
        k(    5) = (   0.4649260  -0.0433105   0.0000000), wk =   0.0118343
        k(    6) = (   0.4545943  -0.0423480   0.0000000), wk =   0.0118343
        k(    7) = (   0.4442626  -0.0413856   0.0000000), wk =   0.0118343
        k(    8) = (   0.4339310  -0.0404231   0.0000000), wk =   0.0118343
        k(    9) = (   0.4235993  -0.0394607   0.0000000), wk =   0.0118343
        k(   10) = (   0.4132676  -0.0384982   0.0000000), wk =   0.0118343
        k(   11) = (   0.4029359  -0.0375357   0.0000000), wk =   0.0118343
        k(   12) = (   0.3926042  -0.0365733   0.0000000), wk =   0.0118343
        k(   13) = (   0.3822725  -0.0356108   0.0000000), wk =   0.0118343
        k(   14) = (   0.3719408  -0.0346484   0.0000000), wk =   0.0118343
        k(   15) = (   0.3616091  -0.0336859   0.0000000), wk =   0.0118343
        k(   16) = (   0.3512774  -0.0327235   0.0000000), wk =   0.0118343
        k(   17) = (   0.3409458  -0.0317610   0.0000000), wk =   0.0118343
        k(   18) = (   0.3306141  -0.0307986   0.0000000), wk =   0.0118343
        k(   19) = (   0.3202824  -0.0298361   0.0000000), wk =   0.0118343
        k(   20) = (   0.3099507  -0.0288736   0.0000000), wk =   0.0118343
        k(   21) = (   0.2996190  -0.0279112   0.0000000), wk =   0.0118343
        k(   22) = (   0.2892873  -0.0269487   0.0000000), wk =   0.0118343
        k(   23) = (   0.2789556  -0.0259863   0.0000000), wk =   0.0118343
        k(   24) = (   0.2686239  -0.0250238   0.0000000), wk =   0.0118343
        k(   25) = (   0.2582922  -0.0240614   0.0000000), wk =   0.0118343
        k(   26) = (   0.2479605  -0.0230989   0.0000000), wk =   0.0118343
        k(   27) = (   0.2376289  -0.0221365   0.0000000), wk =   0.0118343
        k(   28) = (   0.2272972  -0.0211740   0.0000000), wk =   0.0118343
        k(   29) = (   0.2169655  -0.0202116   0.0000000), wk =   0.0118343
        k(   30) = (   0.2066338  -0.0192491   0.0000000), wk =   0.0118343
        k(   31) = (   0.1963021  -0.0182866   0.0000000), wk =   0.0118343
        k(   32) = (   0.1859704  -0.0173242   0.0000000), wk =   0.0118343
        k(   33) = (   0.1756387  -0.0163617   0.0000000), wk =   0.0118343
        k(   34) = (   0.1653070  -0.0153993   0.0000000), wk =   0.0118343
        k(   35) = (   0.1549753  -0.0144368   0.0000000), wk =   0.0118343
        k(   36) = (   0.1446437  -0.0134744   0.0000000), wk =   0.0118343
        k(   37) = (   0.1343120  -0.0125119   0.0000000), wk =   0.0118343
        k(   38) = (   0.1239803  -0.0115495   0.0000000), wk =   0.0118343
        k(   39) = (   0.1136486  -0.0105870   0.0000000), wk =   0.0118343
        k(   40) = (   0.1033169  -0.0096245   0.0000000), wk =   0.0118343
        k(   41) = (   0.0929852  -0.0086621   0.0000000), wk =   0.0118343
        k(   42) = (   0.0826535  -0.0076996   0.0000000), wk =   0.0118343
        k(   43) = (   0.0723218  -0.0067372   0.0000000), wk =   0.0118343
        k(   44) = (   0.0619901  -0.0057747   0.0000000), wk =   0.0118343
        k(   45) = (   0.0516584  -0.0048123   0.0000000), wk =   0.0118343
        k(   46) = (   0.0413268  -0.0038498   0.0000000), wk =   0.0118343
        k(   47) = (   0.0309951  -0.0028874   0.0000000), wk =   0.0118343
        k(   48) = (   0.0206634  -0.0019249   0.0000000), wk =   0.0118343
        k(   49) = (   0.0103317  -0.0009625   0.0000000), wk =   0.0118343
        k(   50) = (   0.0000000   0.0000000   0.0000000), wk =   0.0118343
        k(   51) = (  -0.0006386   0.0071066   0.0000000), wk =   0.0118343
        k(   52) = (  -0.0012772   0.0142132   0.0000000), wk =   0.0118343
        k(   53) = (  -0.0019159   0.0213197   0.0000000), wk =   0.0118343
        k(   54) = (  -0.0025545   0.0284263   0.0000000), wk =   0.0118343
        k(   55) = (  -0.0031931   0.0355329   0.0000000), wk =   0.0118343
        k(   56) = (  -0.0038317   0.0426395   0.0000000), wk =   0.0118343
        k(   57) = (  -0.0044703   0.0497461   0.0000000), wk =   0.0118343
        k(   58) = (  -0.0051090   0.0568526   0.0000000), wk =   0.0118343
        k(   59) = (  -0.0057476   0.0639592   0.0000000), wk =   0.0118343
        k(   60) = (  -0.0063862   0.0710658   0.0000000), wk =   0.0118343
        k(   61) = (  -0.0070248   0.0781724   0.0000000), wk =   0.0118343
        k(   62) = (  -0.0076635   0.0852790   0.0000000), wk =   0.0118343
        k(   63) = (  -0.0083021   0.0923855   0.0000000), wk =   0.0118343
        k(   64) = (  -0.0089407   0.0994921   0.0000000), wk =   0.0118343
        k(   65) = (  -0.0095793   0.1065987   0.0000000), wk =   0.0118343
        k(   66) = (  -0.0102179   0.1137053   0.0000000), wk =   0.0118343
        k(   67) = (  -0.0108566   0.1208119   0.0000000), wk =   0.0118343
        k(   68) = (  -0.0114952   0.1279184   0.0000000), wk =   0.0118343
        k(   69) = (  -0.0121338   0.1350250   0.0000000), wk =   0.0118343
        k(   70) = (  -0.0127724   0.1421316   0.0000000), wk =   0.0118343
        k(   71) = (  -0.0134110   0.1492382   0.0000000), wk =   0.0118343
        k(   72) = (  -0.0140497   0.1563448   0.0000000), wk =   0.0118343
        k(   73) = (  -0.0146883   0.1634513   0.0000000), wk =   0.0118343
        k(   74) = (  -0.0153269   0.1705579   0.0000000), wk =   0.0118343
        k(   75) = (  -0.0159655   0.1776645   0.0000000), wk =   0.0118343
        k(   76) = (  -0.0166042   0.1847711   0.0000000), wk =   0.0118343
        k(   77) = (  -0.0172428   0.1918777   0.0000000), wk =   0.0118343
        k(   78) = (  -0.0178814   0.1989842   0.0000000), wk =   0.0118343
        k(   79) = (  -0.0185200   0.2060908   0.0000000), wk =   0.0118343
        k(   80) = (  -0.0191586   0.2131974   0.0000000), wk =   0.0118343
        k(   81) = (  -0.0197973   0.2203040   0.0000000), wk =   0.0118343
        k(   82) = (  -0.0204359   0.2274106   0.0000000), wk =   0.0118343
        k(   83) = (  -0.0210745   0.2345171   0.0000000), wk =   0.0118343
        k(   84) = (  -0.0217131   0.2416237   0.0000000), wk =   0.0118343
        k(   85) = (  -0.0223517   0.2487303   0.0000000), wk =   0.0118343
        k(   86) = (  -0.0229904   0.2558369   0.0000000), wk =   0.0118343
        k(   87) = (  -0.0236290   0.2629435   0.0000000), wk =   0.0118343
        k(   88) = (  -0.0242676   0.2700500   0.0000000), wk =   0.0118343
        k(   89) = (  -0.0249062   0.2771566   0.0000000), wk =   0.0118343
        k(   90) = (  -0.0255449   0.2842632   0.0000000), wk =   0.0118343
        k(   91) = (  -0.0261835   0.2913698   0.0000000), wk =   0.0118343
        k(   92) = (  -0.0268221   0.2984763   0.0000000), wk =   0.0118343
        k(   93) = (  -0.0274607   0.3055829   0.0000000), wk =   0.0118343
        k(   94) = (  -0.0280993   0.3126895   0.0000000), wk =   0.0118343
        k(   95) = (  -0.0287380   0.3197961   0.0000000), wk =   0.0118343
        k(   96) = (  -0.0293766   0.3269027   0.0000000), wk =   0.0118343
        k(   97) = (  -0.0300152   0.3340092   0.0000000), wk =   0.0118343
        k(   98) = (  -0.0306538   0.3411158   0.0000000), wk =   0.0118343
        k(   99) = (  -0.0312924   0.3482224   0.0000000), wk =   0.0118343
        k(  100) = (   0.4749603   0.3010621   0.0000000), wk =   0.0118343
        k(  101) = (   0.4680769   0.2966989   0.0000000), wk =   0.0118343
        k(  102) = (   0.4611934   0.2923357   0.0000000), wk =   0.0118343
        k(  103) = (   0.4543099   0.2879725   0.0000000), wk =   0.0118343
        k(  104) = (   0.4474264   0.2836092   0.0000000), wk =   0.0118343
        k(  105) = (   0.4405429   0.2792460   0.0000000), wk =   0.0118343
        k(  106) = (   0.4336594   0.2748828   0.0000000), wk =   0.0118343
        k(  107) = (   0.4267760   0.2705196   0.0000000), wk =   0.0118343
        k(  108) = (   0.4198925   0.2661564   0.0000000), wk =   0.0118343
        k(  109) = (   0.4130090   0.2617931   0.0000000), wk =   0.0118343
        k(  110) = (   0.4061255   0.2574299   0.0000000), wk =   0.0118343
        k(  111) = (   0.3992420   0.2530667   0.0000000), wk =   0.0118343
        k(  112) = (   0.3923585   0.2487035   0.0000000), wk =   0.0118343
        k(  113) = (   0.3854751   0.2443403   0.0000000), wk =   0.0118343
        k(  114) = (   0.3785916   0.2399770   0.0000000), wk =   0.0118343
        k(  115) = (   0.3717081   0.2356138   0.0000000), wk =   0.0118343
        k(  116) = (   0.3648246   0.2312506   0.0000000), wk =   0.0118343
        k(  117) = (   0.3579411   0.2268874   0.0000000), wk =   0.0118343
        k(  118) = (   0.3510576   0.2225242   0.0000000), wk =   0.0118343
        k(  119) = (   0.3441742   0.2181610   0.0000000), wk =   0.0118343
        k(  120) = (   0.3372907   0.2137977   0.0000000), wk =   0.0118343
        k(  121) = (   0.3304072   0.2094345   0.0000000), wk =   0.0118343
        k(  122) = (   0.3235237   0.2050713   0.0000000), wk =   0.0118343
        k(  123) = (   0.3166402   0.2007081   0.0000000), wk =   0.0118343
        k(  124) = (   0.3097567   0.1963449   0.0000000), wk =   0.0118343
        k(  125) = (   0.3028733   0.1919816   0.0000000), wk =   0.0118343
        k(  126) = (   0.2959898   0.1876184   0.0000000), wk =   0.0118343
        k(  127) = (   0.2891063   0.1832552   0.0000000), wk =   0.0118343
        k(  128) = (   0.2822228   0.1788920   0.0000000), wk =   0.0118343
        k(  129) = (   0.2753393   0.1745288   0.0000000), wk =   0.0118343
        k(  130) = (   0.2684558   0.1701655   0.0000000), wk =   0.0118343
        k(  131) = (   0.2615724   0.1658023   0.0000000), wk =   0.0118343
        k(  132) = (   0.2546889   0.1614391   0.0000000), wk =   0.0118343
        k(  133) = (   0.2478054   0.1570759   0.0000000), wk =   0.0118343
        k(  134) = (   0.2409219   0.1527127   0.0000000), wk =   0.0118343
        k(  135) = (   0.2340384   0.1483494   0.0000000), wk =   0.0118343
        k(  136) = (   0.2271549   0.1439862   0.0000000), wk =   0.0118343
        k(  137) = (   0.2202715   0.1396230   0.0000000), wk =   0.0118343
        k(  138) = (   0.2133880   0.1352598   0.0000000), wk =   0.0118343
        k(  139) = (   0.2065045   0.1308966   0.0000000), wk =   0.0118343
        k(  140) = (   0.1996210   0.1265334   0.0000000), wk =   0.0118343
        k(  141) = (   0.1927375   0.1221701   0.0000000), wk =   0.0118343
        k(  142) = (   0.1858540   0.1178069   0.0000000), wk =   0.0118343
        k(  143) = (   0.1789706   0.1134437   0.0000000), wk =   0.0118343
        k(  144) = (   0.1720871   0.1090805   0.0000000), wk =   0.0118343
        k(  145) = (   0.1652036   0.1047173   0.0000000), wk =   0.0118343
        k(  146) = (   0.1583201   0.1003540   0.0000000), wk =   0.0118343
        k(  147) = (   0.1514366   0.0959908   0.0000000), wk =   0.0118343
        k(  148) = (   0.1445531   0.0916276   0.0000000), wk =   0.0118343
        k(  149) = (   0.1376697   0.0872644   0.0000000), wk =   0.0118343
        k(  150) = (   0.1307862   0.0829012   0.0000000), wk =   0.0118343
        k(  151) = (   0.1239027   0.0785379   0.0000000), wk =   0.0118343
        k(  152) = (   0.1170192   0.0741747   0.0000000), wk =   0.0118343
        k(  153) = (   0.1101357   0.0698115   0.0000000), wk =   0.0118343
        k(  154) = (   0.1032522   0.0654483   0.0000000), wk =   0.0118343
        k(  155) = (   0.0963688   0.0610851   0.0000000), wk =   0.0118343
        k(  156) = (   0.0894853   0.0567218   0.0000000), wk =   0.0118343
        k(  157) = (   0.0826018   0.0523586   0.0000000), wk =   0.0118343
        k(  158) = (   0.0757183   0.0479954   0.0000000), wk =   0.0118343
        k(  159) = (   0.0688348   0.0436322   0.0000000), wk =   0.0118343
        k(  160) = (   0.0619513   0.0392690   0.0000000), wk =   0.0118343
        k(  161) = (   0.0550679   0.0349058   0.0000000), wk =   0.0118343
        k(  162) = (   0.0481844   0.0305425   0.0000000), wk =   0.0118343
        k(  163) = (   0.0413009   0.0261793   0.0000000), wk =   0.0118343
        k(  164) = (   0.0344174   0.0218161   0.0000000), wk =   0.0118343
        k(  165) = (   0.0275339   0.0174529   0.0000000), wk =   0.0118343
        k(  166) = (   0.0206504   0.0130897   0.0000000), wk =   0.0118343
        k(  167) = (   0.0137670   0.0087264   0.0000000), wk =   0.0118343
        k(  168) = (   0.0068835   0.0043632   0.0000000), wk =   0.0118343
        k(  169) = (   0.0000000   0.0000000   0.0000000), wk =   0.0118343

                       cryst. coord.
        k(    1) = (   0.5000000   0.0000000   0.0000000), wk =   0.0118343
        k(    2) = (   0.4897959   0.0000000   0.0000000), wk =   0.0118343
        k(    3) = (   0.4795918   0.0000000   0.0000000), wk =   0.0118343
        k(    4) = (   0.4693878   0.0000000   0.0000000), wk =   0.0118343
        k(    5) = (   0.4591837   0.0000000   0.0000000), wk =   0.0118343
        k(    6) = (   0.4489796  -0.0000000   0.0000000), wk =   0.0118343
        k(    7) = (   0.4387755   0.0000000   0.0000000), wk =   0.0118343
        k(    8) = (   0.4285714   0.0000000   0.0000000), wk =   0.0118343
        k(    9) = (   0.4183673   0.0000000   0.0000000), wk =   0.0118343
        k(   10) = (   0.4081633   0.0000000   0.0000000), wk =   0.0118343
        k(   11) = (   0.3979592   0.0000000   0.0000000), wk =   0.0118343
        k(   12) = (   0.3877551   0.0000000   0.0000000), wk =   0.0118343
        k(   13) = (   0.3775510   0.0000000   0.0000000), wk =   0.0118343
        k(   14) = (   0.3673469   0.0000000   0.0000000), wk =   0.0118343
        k(   15) = (   0.3571429   0.0000000   0.0000000), wk =   0.0118343
        k(   16) = (   0.3469388   0.0000000   0.0000000), wk =   0.0118343
        k(   17) = (   0.3367347   0.0000000   0.0000000), wk =   0.0118343
        k(   18) = (   0.3265306   0.0000000   0.0000000), wk =   0.0118343
        k(   19) = (   0.3163265   0.0000000   0.0000000), wk =   0.0118343
        k(   20) = (   0.3061224   0.0000000   0.0000000), wk =   0.0118343
        k(   21) = (   0.2959184  -0.0000000   0.0000000), wk =   0.0118343
        k(   22) = (   0.2857143   0.0000000   0.0000000), wk =   0.0118343
        k(   23) = (   0.2755102   0.0000000   0.0000000), wk =   0.0118343
        k(   24) = (   0.2653061   0.0000000   0.0000000), wk =   0.0118343
        k(   25) = (   0.2551020   0.0000000   0.0000000), wk =   0.0118343
        k(   26) = (   0.2448980   0.0000000   0.0000000), wk =   0.0118343
        k(   27) = (   0.2346939   0.0000000   0.0000000), wk =   0.0118343
        k(   28) = (   0.2244898  -0.0000000   0.0000000), wk =   0.0118343
        k(   29) = (   0.2142857   0.0000000   0.0000000), wk =   0.0118343
        k(   30) = (   0.2040816   0.0000000   0.0000000), wk =   0.0118343
        k(   31) = (   0.1938776   0.0000000   0.0000000), wk =   0.0118343
        k(   32) = (   0.1836735   0.0000000   0.0000000), wk =   0.0118343
        k(   33) = (   0.1734694   0.0000000   0.0000000), wk =   0.0118343
        k(   34) = (   0.1632653   0.0000000   0.0000000), wk =   0.0118343
        k(   35) = (   0.1530612   0.0000000   0.0000000), wk =   0.0118343
        k(   36) = (   0.1428571   0.0000000   0.0000000), wk =   0.0118343
        k(   37) = (   0.1326531   0.0000000   0.0000000), wk =   0.0118343
        k(   38) = (   0.1224490   0.0000000   0.0000000), wk =   0.0118343
        k(   39) = (   0.1122449   0.0000000   0.0000000), wk =   0.0118343
        k(   40) = (   0.1020408   0.0000000   0.0000000), wk =   0.0118343
        k(   41) = (   0.0918367   0.0000000   0.0000000), wk =   0.0118343
        k(   42) = (   0.0816327   0.0000000   0.0000000), wk =   0.0118343
        k(   43) = (   0.0714286   0.0000000   0.0000000), wk =   0.0118343
        k(   44) = (   0.0612245   0.0000000   0.0000000), wk =   0.0118343
        k(   45) = (   0.0510204   0.0000000   0.0000000), wk =   0.0118343
        k(   46) = (   0.0408163   0.0000000   0.0000000), wk =   0.0118343
        k(   47) = (   0.0306122   0.0000000   0.0000000), wk =   0.0118343
        k(   48) = (   0.0204082   0.0000000   0.0000000), wk =   0.0118343
        k(   49) = (   0.0102041   0.0000000   0.0000000), wk =   0.0118343
        k(   50) = (   0.0000000   0.0000000   0.0000000), wk =   0.0118343
        k(   51) = (  -0.0000000   0.0102041   0.0000000), wk =   0.0118343
        k(   52) = (  -0.0000000   0.0204082   0.0000000), wk =   0.0118343
        k(   53) = (  -0.0000000   0.0306122   0.0000000), wk =   0.0118343
        k(   54) = (  -0.0000000   0.0408163   0.0000000), wk =   0.0118343
        k(   55) = (  -0.0000000   0.0510204   0.0000000), wk =   0.0118343
        k(   56) = (  -0.0000000   0.0612245   0.0000000), wk =   0.0118343
        k(   57) = (  -0.0000000   0.0714286   0.0000000), wk =   0.0118343
        k(   58) = (  -0.0000000   0.0816327   0.0000000), wk =   0.0118343
        k(   59) = (   0.0000000   0.0918367   0.0000000), wk =   0.0118343
        k(   60) = (  -0.0000000   0.1020408   0.0000000), wk =   0.0118343
        k(   61) = (  -0.0000000   0.1122449   0.0000000), wk =   0.0118343
        k(   62) = (  -0.0000000   0.1224490   0.0000000), wk =   0.0118343
        k(   63) = (  -0.0000000   0.1326531   0.0000000), wk =   0.0118343
        k(   64) = (  -0.0000000   0.1428571   0.0000000), wk =   0.0118343
        k(   65) = (  -0.0000000   0.1530612   0.0000000), wk =   0.0118343
        k(   66) = (  -0.0000000   0.1632653   0.0000000), wk =   0.0118343
        k(   67) = (  -0.0000000   0.1734694   0.0000000), wk =   0.0118343
        k(   68) = (   0.0000000   0.1836735   0.0000000), wk =   0.0118343
        k(   69) = (   0.0000000   0.1938776   0.0000000), wk =   0.0118343
        k(   70) = (  -0.0000000   0.2040816   0.0000000), wk =   0.0118343
        k(   71) = (   0.0000000   0.2142857   0.0000000), wk =   0.0118343
        k(   72) = (   0.0000000   0.2244898   0.0000000), wk =   0.0118343
        k(   73) = (  -0.0000000   0.2346939   0.0000000), wk =   0.0118343
        k(   74) = (  -0.0000000   0.2448980   0.0000000), wk =   0.0118343
        k(   75) = (  -0.0000000   0.2551020   0.0000000), wk =   0.0118343
        k(   76) = (  -0.0000000   0.2653061   0.0000000), wk =   0.0118343
        k(   77) = (  -0.0000000   0.2755102   0.0000000), wk =   0.0118343
        k(   78) = (   0.0000000   0.2857143   0.0000000), wk =   0.0118343
        k(   79) = (  -0.0000000   0.2959184   0.0000000), wk =   0.0118343
        k(   80) = (  -0.0000000   0.3061224   0.0000000), wk =   0.0118343
        k(   81) = (  -0.0000000   0.3163265   0.0000000), wk =   0.0118343
        k(   82) = (  -0.0000000   0.3265306   0.0000000), wk =   0.0118343
        k(   83) = (  -0.0000000   0.3367347   0.0000000), wk =   0.0118343
        k(   84) = (  -0.0000000   0.3469388   0.0000000), wk =   0.0118343
        k(   85) = (  -0.0000000   0.3571429   0.0000000), wk =   0.0118343
        k(   86) = (   0.0000000   0.3673469   0.0000000), wk =   0.0118343
        k(   87) = (  -0.0000000   0.3775510   0.0000000), wk =   0.0118343
        k(   88) = (   0.0000000   0.3877551   0.0000000), wk =   0.0118343
        k(   89) = (  -0.0000000   0.3979592   0.0000000), wk =   0.0118343
        k(   90) = (  -0.0000000   0.4081633   0.0000000), wk =   0.0118343
        k(   91) = (  -0.0000000   0.4183673   0.0000000), wk =   0.0118343
        k(   92) = (   0.0000000   0.4285714   0.0000000), wk =   0.0118343
        k(   93) = (  -0.0000000   0.4387755   0.0000000), wk =   0.0118343
        k(   94) = (   0.0000000   0.4489796   0.0000000), wk =   0.0118343
        k(   95) = (  -0.0000000   0.4591837   0.0000000), wk =   0.0118343
        k(   96) = (  -0.0000000   0.4693878   0.0000000), wk =   0.0118343
        k(   97) = (  -0.0000000   0.4795918   0.0000000), wk =   0.0118343
        k(   98) = (  -0.0000000   0.4897959   0.0000000), wk =   0.0118343
        k(   99) = (  -0.0000000   0.5000000   0.0000000), wk =   0.0118343
        k(  100) = (   0.5000000   0.5000000   0.0000000), wk =   0.0118343
        k(  101) = (   0.4927536   0.4927536   0.0000000), wk =   0.0118343
        k(  102) = (   0.4855072   0.4855072   0.0000000), wk =   0.0118343
        k(  103) = (   0.4782609   0.4782609   0.0000000), wk =   0.0118343
        k(  104) = (   0.4710145   0.4710145   0.0000000), wk =   0.0118343
        k(  105) = (   0.4637681   0.4637681   0.0000000), wk =   0.0118343
        k(  106) = (   0.4565217   0.4565217   0.0000000), wk =   0.0118343
        k(  107) = (   0.4492754   0.4492754   0.0000000), wk =   0.0118343
        k(  108) = (   0.4420290   0.4420290   0.0000000), wk =   0.0118343
        k(  109) = (   0.4347826   0.4347826   0.0000000), wk =   0.0118343
        k(  110) = (   0.4275362   0.4275362   0.0000000), wk =   0.0118343
        k(  111) = (   0.4202899   0.4202899   0.0000000), wk =   0.0118343
        k(  112) = (   0.4130435   0.4130435   0.0000000), wk =   0.0118343
        k(  113) = (   0.4057971   0.4057971   0.0000000), wk =   0.0118343
        k(  114) = (   0.3985507   0.3985507   0.0000000), wk =   0.0118343
        k(  115) = (   0.3913043   0.3913043   0.0000000), wk =   0.0118343
        k(  116) = (   0.3840580   0.3840580   0.0000000), wk =   0.0118343
        k(  117) = (   0.3768116   0.3768116   0.0000000), wk =   0.0118343
        k(  118) = (   0.3695652   0.3695652   0.0000000), wk =   0.0118343
        k(  119) = (   0.3623188   0.3623188   0.0000000), wk =   0.0118343
        k(  120) = (   0.3550725   0.3550725   0.0000000), wk =   0.0118343
        k(  121) = (   0.3478261   0.3478261   0.0000000), wk =   0.0118343
        k(  122) = (   0.3405797   0.3405797   0.0000000), wk =   0.0118343
        k(  123) = (   0.3333333   0.3333333   0.0000000), wk =   0.0118343
        k(  124) = (   0.3260870   0.3260870   0.0000000), wk =   0.0118343
        k(  125) = (   0.3188406   0.3188406   0.0000000), wk =   0.0118343
        k(  126) = (   0.3115942   0.3115942   0.0000000), wk =   0.0118343
        k(  127) = (   0.3043478   0.3043478   0.0000000), wk =   0.0118343
        k(  128) = (   0.2971014   0.2971014   0.0000000), wk =   0.0118343
        k(  129) = (   0.2898551   0.2898551   0.0000000), wk =   0.0118343
        k(  130) = (   0.2826087   0.2826087   0.0000000), wk =   0.0118343
        k(  131) = (   0.2753623   0.2753623   0.0000000), wk =   0.0118343
        k(  132) = (   0.2681159   0.2681159   0.0000000), wk =   0.0118343
        k(  133) = (   0.2608696   0.2608696   0.0000000), wk =   0.0118343
        k(  134) = (   0.2536232   0.2536232   0.0000000), wk =   0.0118343
        k(  135) = (   0.2463768   0.2463768   0.0000000), wk =   0.0118343
        k(  136) = (   0.2391304   0.2391304   0.0000000), wk =   0.0118343
        k(  137) = (   0.2318841   0.2318841   0.0000000), wk =   0.0118343
        k(  138) = (   0.2246377   0.2246377   0.0000000), wk =   0.0118343
        k(  139) = (   0.2173913   0.2173913   0.0000000), wk =   0.0118343
        k(  140) = (   0.2101449   0.2101449   0.0000000), wk =   0.0118343
        k(  141) = (   0.2028986   0.2028986   0.0000000), wk =   0.0118343
        k(  142) = (   0.1956522   0.1956522   0.0000000), wk =   0.0118343
        k(  143) = (   0.1884058   0.1884058   0.0000000), wk =   0.0118343
        k(  144) = (   0.1811594   0.1811594   0.0000000), wk =   0.0118343
        k(  145) = (   0.1739130   0.1739130   0.0000000), wk =   0.0118343
        k(  146) = (   0.1666667   0.1666667   0.0000000), wk =   0.0118343
        k(  147) = (   0.1594203   0.1594203   0.0000000), wk =   0.0118343
        k(  148) = (   0.1521739   0.1521739   0.0000000), wk =   0.0118343
        k(  149) = (   0.1449275   0.1449275   0.0000000), wk =   0.0118343
        k(  150) = (   0.1376812   0.1376812   0.0000000), wk =   0.0118343
        k(  151) = (   0.1304348   0.1304348   0.0000000), wk =   0.0118343
        k(  152) = (   0.1231884   0.1231884   0.0000000), wk =   0.0118343
        k(  153) = (   0.1159420   0.1159420   0.0000000), wk =   0.0118343
        k(  154) = (   0.1086957   0.1086957   0.0000000), wk =   0.0118343
        k(  155) = (   0.1014493   0.1014493   0.0000000), wk =   0.0118343
        k(  156) = (   0.0942029   0.0942029   0.0000000), wk =   0.0118343
        k(  157) = (   0.0869565   0.0869565   0.0000000), wk =   0.0118343
        k(  158) = (   0.0797101   0.0797101   0.0000000), wk =   0.0118343
        k(  159) = (   0.0724638   0.0724638   0.0000000), wk =   0.0118343
        k(  160) = (   0.0652174   0.0652174   0.0000000), wk =   0.0118343
        k(  161) = (   0.0579710   0.0579710   0.0000000), wk =   0.0118343
        k(  162) = (   0.0507246   0.0507246   0.0000000), wk =   0.0118343
        k(  163) = (   0.0434783   0.0434783   0.0000000), wk =   0.0118343
        k(  164) = (   0.0362319   0.0362319   0.0000000), wk =   0.0118343
        k(  165) = (   0.0289855   0.0289855   0.0000000), wk =   0.0118343
        k(  166) = (   0.0217391   0.0217391   0.0000000), wk =   0.0118343
        k(  167) = (   0.0144928   0.0144928   0.0000000), wk =   0.0118343
        k(  168) = (   0.0072464   0.0072464   0.0000000), wk =   0.0118343
        k(  169) = (   0.0000000   0.0000000   0.0000000), wk =   0.0118343

     Dense  grid:   383007 G-vectors     FFT dimensions: (  45,  64, 288)

     Smooth grid:   135241 G-vectors     FFT dimensions: (  32,  45, 200)

     Estimated max dynamical RAM per process >      13.15MB

     Estimated total allocated dynamical RAM >     157.79MB
 ----2D----2D----2D----2D----2D----2D
 THE CODE IS RUNNING WITH 2D CUTOFF
 ----2D----2D----2D----2D----2D----2D

     The potential is recalculated from file :
     ./out/aiida.save/charge-density.xml


     negative rho (up, down):  9.952E-04 0.000E+00
     Starting wfc are   25 randomized atomic wfcs

     Band Structure Calculation
     CG style diagonalization

     Computing kpt #:     1
     total cpu time spent up to now is        7.6 secs

     Computing kpt #:     2
     total cpu time spent up to now is        8.7 secs

     Computing kpt #:     3
     total cpu time spent up to now is        9.9 secs

     Computing kpt #:     4
     total cpu time spent up to now is       11.0 secs

     Computing kpt #:     5
     total cpu time spent up to now is       12.2 secs

     Computing kpt #:     6
     total cpu time spent up to now is       13.3 secs

     Computing kpt #:     7
     total cpu time spent up to now is       14.5 secs

     Computing kpt #:     8
     total cpu time spent up to now is       15.7 secs

     Computing kpt #:     9
     total cpu time spent up to now is       16.9 secs

     Computing kpt #:    10
     total cpu time spent up to now is       18.1 secs

     Computing kpt #:    11
     total cpu time spent up to now is       19.2 secs

     Computing kpt #:    12
     total cpu time spent up to now is       20.4 secs

     Computing kpt #:    13
     total cpu time spent up to now is       21.6 secs

     Computing kpt #:    14
     total cpu time spent up to now is       22.8 secs

     Computing kpt #:    15
     total cpu time spent up to now is       24.0 secs

     Computing kpt #:    16
     total cpu time spent up to now is       25.4 secs

     Computing kpt #:    17
     c_bands:  1 eigenvalues not converged
     total cpu time spent up to now is       26.9 secs

     Computing kpt #:    18
     total cpu time spent up to now is       28.4 secs

     Computing kpt #:    19
     total cpu time spent up to now is       29.8 secs

     Computing kpt #:    20
     total cpu time spent up to now is       31.1 secs

     Computing kpt #:    21
     total cpu time spent up to now is       32.4 secs

     Computing kpt #:    22
     total cpu time spent up to now is       33.8 secs

     Computing kpt #:    23
     total cpu time spent up to now is       35.1 secs

     Computing kpt #:    24
     total cpu time spent up to now is       36.4 secs

     Computing kpt #:    25
     total cpu time spent up to now is       37.7 secs

     Computing kpt #:    26
     total cpu time spent up to now is       38.9 secs

     Computing kpt #:    27
     total cpu time spent up to now is       40.2 secs

     Computing kpt #:    28
     total cpu time spent up to now is       41.5 secs

     Computing kpt #:    29
     total cpu time spent up to now is       42.8 secs

     Computing kpt #:    30
     total cpu time spent up to now is       44.0 secs

     Computing kpt #:    31
     total cpu time spent up to now is       45.3 secs

     Computing kpt #:    32
     total cpu time spent up to now is       46.5 secs

     Computing kpt #:    33
     total cpu time spent up to now is       47.8 secs

     Computing kpt #:    34
     total cpu time spent up to now is       49.0 secs

     Computing kpt #:    35
     total cpu time spent up to now is       50.3 secs

     Computing kpt #:    36
     total cpu time spent up to now is       51.6 secs

     Computing kpt #:    37
     total cpu time spent up to now is       52.8 secs

     Computing kpt #:    38
     total cpu time spent up to now is       54.1 secs

     Computing kpt #:    39
     total cpu time spent up to now is       55.4 secs

     Computing kpt #:    40
     total cpu time spent up to now is       56.6 secs

     Computing kpt #:    41
     total cpu time spent up to now is       57.8 secs

     Computing kpt #:    42
     total cpu time spent up to now is       59.1 secs

     Computing kpt #:    43
     total cpu time spent up to now is       60.3 secs

     Computing kpt #:    44
     total cpu time spent up to now is       61.6 secs

     Computing kpt #:    45
     total cpu time spent up to now is       62.9 secs

     Computing kpt #:    46
     total cpu time spent up to now is       64.1 secs

     Computing kpt #:    47
     total cpu time spent up to now is       65.4 secs

     Computing kpt #:    48
     total cpu time spent up to now is       66.6 secs

     Computing kpt #:    49
     total cpu time spent up to now is       67.9 secs

     Computing kpt #:    50
     total cpu time spent up to now is       69.2 secs

     Computing kpt #:    51
     total cpu time spent up to now is       70.4 secs

     Computing kpt #:    52
     total cpu time spent up to now is       71.6 secs

     Computing kpt #:    53
     total cpu time spent up to now is       72.9 secs

     Computing kpt #:    54
     total cpu time spent up to now is       74.2 secs

     Computing kpt #:    55
     total cpu time spent up to now is       75.4 secs

     Computing kpt #:    56
     total cpu time spent up to now is       76.7 secs

     Computing kpt #:    57
     total cpu time spent up to now is       78.0 secs

     Computing kpt #:    58
     total cpu time spent up to now is       79.2 secs

     Computing kpt #:    59
     total cpu time spent up to now is       80.5 secs

     Computing kpt #:    60
     total cpu time spent up to now is       81.7 secs

     Computing kpt #:    61
     total cpu time spent up to now is       83.0 secs

     Computing kpt #:    62
     total cpu time spent up to now is       84.3 secs

     Computing kpt #:    63
     total cpu time spent up to now is       85.5 secs

     Computing kpt #:    64
     total cpu time spent up to now is       86.8 secs

     Computing kpt #:    65
     total cpu time spent up to now is       87.9 secs

     Computing kpt #:    66
     total cpu time spent up to now is       89.2 secs

     Computing kpt #:    67
     total cpu time spent up to now is       90.5 secs

     Computing kpt #:    68
     total cpu time spent up to now is       91.8 secs

     Computing kpt #:    69
     total cpu time spent up to now is       93.1 secs

     Computing kpt #:    70
     total cpu time spent up to now is       94.3 secs

     Computing kpt #:    71
     total cpu time spent up to now is       95.6 secs

     Computing kpt #:    72
     total cpu time spent up to now is       96.9 secs

     Computing kpt #:    73
     total cpu time spent up to now is       98.2 secs

     Computing kpt #:    74
     total cpu time spent up to now is       99.4 secs

     Computing kpt #:    75
     total cpu time spent up to now is      100.7 secs

     Computing kpt #:    76
     total cpu time spent up to now is      102.0 secs

     Computing kpt #:    77
     total cpu time spent up to now is      103.3 secs

     Computing kpt #:    78
     total cpu time spent up to now is      104.6 secs

     Computing kpt #:    79
     total cpu time spent up to now is      105.9 secs

     Computing kpt #:    80
     total cpu time spent up to now is      107.1 secs

     Computing kpt #:    81
     total cpu time spent up to now is      108.3 secs

     Computing kpt #:    82
     total cpu time spent up to now is      109.6 secs

     Computing kpt #:    83
     total cpu time spent up to now is      110.9 secs

     Computing kpt #:    84
     total cpu time spent up to now is      112.2 secs

     Computing kpt #:    85
     total cpu time spent up to now is      113.5 secs

     Computing kpt #:    86
     total cpu time spent up to now is      114.8 secs

     Computing kpt #:    87
     total cpu time spent up to now is      116.1 secs

     Computing kpt #:    88
     total cpu time spent up to now is      117.3 secs

     Computing kpt #:    89
     total cpu time spent up to now is      118.5 secs

     Computing kpt #:    90
     total cpu time spent up to now is      119.8 secs

     Computing kpt #:    91
     total cpu time spent up to now is      121.1 secs

     Computing kpt #:    92
     total cpu time spent up to now is      122.4 secs

     Computing kpt #:    93
     total cpu time spent up to now is      123.6 secs

     Computing kpt #:    94
     total cpu time spent up to now is      124.8 secs

     Computing kpt #:    95
     total cpu time spent up to now is      126.0 secs

     Computing kpt #:    96
     total cpu time spent up to now is      127.2 secs

     Computing kpt #:    97
     total cpu time spent up to now is      128.4 secs

     Computing kpt #:    98
     total cpu time spent up to now is      129.7 secs

     Computing kpt #:    99
     total cpu time spent up to now is      130.9 secs

     Computing kpt #:   100
     total cpu time spent up to now is      132.1 secs

     Computing kpt #:   101
     total cpu time spent up to now is      133.2 secs

     Computing kpt #:   102
     total cpu time spent up to now is      134.4 secs

     Computing kpt #:   103
     total cpu time spent up to now is      135.7 secs

     Computing kpt #:   104
     total cpu time spent up to now is      136.8 secs

     Computing kpt #:   105
     total cpu time spent up to now is      138.0 secs

     Computing kpt #:   106
     total cpu time spent up to now is      139.2 secs

     Computing kpt #:   107
     total cpu time spent up to now is      140.4 secs

     Computing kpt #:   108
     total cpu time spent up to now is      141.6 secs

     Computing kpt #:   109
     total cpu time spent up to now is      142.8 secs

     Computing kpt #:   110
     total cpu time spent up to now is      144.0 secs

     Computing kpt #:   111
     total cpu time spent up to now is      145.2 secs

     Computing kpt #:   112
     total cpu time spent up to now is      146.4 secs

     Computing kpt #:   113
     total cpu time spent up to now is      147.6 secs

     Computing kpt #:   114
     total cpu time spent up to now is      148.8 secs

     Computing kpt #:   115
     total cpu time spent up to now is      150.2 secs

     Computing kpt #:   116
     total cpu time spent up to now is      151.8 secs

     Computing kpt #:   117
     total cpu time spent up to now is      153.0 secs

     Computing kpt #:   118
     total cpu time spent up to now is      154.3 secs

     Computing kpt #:   119
     total cpu time spent up to now is      155.5 secs

     Computing kpt #:   120
     total cpu time spent up to now is      156.7 secs

     Computing kpt #:   121
     total cpu time spent up to now is      158.0 secs

     Computing kpt #:   122
     total cpu time spent up to now is      159.4 secs

     Computing kpt #:   123
     total cpu time spent up to now is      160.9 secs

     Computing kpt #:   124
     total cpu time spent up to now is      162.4 secs

     Computing kpt #:   125
     total cpu time spent up to now is      163.7 secs

     Computing kpt #:   126
     total cpu time spent up to now is      165.1 secs

     Computing kpt #:   127
     total cpu time spent up to now is      166.4 secs

     Computing kpt #:   128
     total cpu time spent up to now is      167.7 secs

     Computing kpt #:   129
     total cpu time spent up to now is      169.0 secs

     Computing kpt #:   130
     total cpu time spent up to now is      170.3 secs

     Computing kpt #:   131
     total cpu time spent up to now is      171.6 secs

     Computing kpt #:   132
     total cpu time spent up to now is      172.9 secs

     Computing kpt #:   133
     total cpu time spent up to now is      174.2 secs

     Computing kpt #:   134
     total cpu time spent up to now is      175.5 secs

     Computing kpt #:   135
     total cpu time spent up to now is      176.7 secs

     Computing kpt #:   136
     total cpu time spent up to now is      178.0 secs

     Computing kpt #:   137
     total cpu time spent up to now is      179.3 secs

     Computing kpt #:   138
     total cpu time spent up to now is      180.5 secs

     Computing kpt #:   139
     total cpu time spent up to now is      181.8 secs

     Computing kpt #:   140
     total cpu time spent up to now is      183.0 secs

     Computing kpt #:   141
     total cpu time spent up to now is      184.2 secs

     Computing kpt #:   142
     total cpu time spent up to now is      185.5 secs

     Computing kpt #:   143
     total cpu time spent up to now is      186.7 secs

     Computing kpt #:   144
     total cpu time spent up to now is      188.0 secs

     Computing kpt #:   145
     total cpu time spent up to now is      189.2 secs

     Computing kpt #:   146
     total cpu time spent up to now is      190.5 secs

     Computing kpt #:   147
     total cpu time spent up to now is      191.7 secs

     Computing kpt #:   148
     total cpu time spent up to now is      193.0 secs

     Computing kpt #:   149
     total cpu time spent up to now is      194.2 secs

     Computing kpt #:   150
     total cpu time spent up to now is      195.5 secs

     Computing kpt #:   151
     total cpu time spent up to now is      196.7 secs

     Computing kpt #:   152
     total cpu time spent up to now is      198.0 secs

     Computing kpt #:   153
     total cpu time spent up to now is      199.2 secs

     Computing kpt #:   154
     total cpu time spent up to now is      200.5 secs

     Computing kpt #:   155
     total cpu time spent up to now is      201.7 secs

     Computing kpt #:   156
     total cpu time spent up to now is      203.0 secs

     Computing kpt #:   157
     total cpu time spent up to now is      204.2 secs

     Computing kpt #:   158
     total cpu time spent up to now is      205.4 secs

     Computing kpt #:   159
     total cpu time spent up to now is      206.7 secs

     Computing kpt #:   160
     total cpu time spent up to now is      207.9 secs

     Computing kpt #:   161
     total cpu time spent up to now is      209.2 secs

     Computing kpt #:   162
     total cpu time spent up to now is      210.4 secs

     Computing kpt #:   163
     total cpu time spent up to now is      211.7 secs

     Computing kpt #:   164
     total cpu time spent up to now is      213.0 secs

     Computing kpt #:   165
     total cpu time spent up to now is      214.2 secs

     Computing kpt #:   166
     total cpu time spent up to now is      215.5 secs

     Computing kpt #:   167
     total cpu time spent up to now is      216.8 secs

     Computing kpt #:   168
     total cpu time spent up to now is      218.1 secs

     Computing kpt #:   169
     total cpu time spent up to now is      219.2 secs

     ethr =  1.11E-11,  avg # of iterations = 40.5

     total cpu time spent up to now is      219.2 secs

     End of band structure calculation

          k = 0.5063-0.0472 0.0000 ( 16812 PWs)   bands (ev):

   -96.5663 -60.1405 -60.0884 -59.9646 -31.1020 -26.7292 -16.8009 -13.8999
   -13.7056 -13.2563 -10.1030  -9.4571  -9.0390  -8.8167  -8.6200  -8.3754
    -7.4629  -6.1367  -3.6185  -1.8253  -0.1400   0.8644

          k = 0.4959-0.0462 0.0000 ( 16808 PWs)   bands (ev):

   -96.5663 -60.1405 -60.0884 -59.9646 -31.1021 -26.7292 -16.8009 -13.8999
   -13.7050 -13.2563 -10.1030  -9.4569  -9.0386  -8.8168  -8.6202  -8.3756
    -7.4629  -6.1392  -3.6185  -1.8269  -0.1335   0.8558

          k = 0.4856-0.0452 0.0000 ( 16809 PWs)   bands (ev):

   -96.5663 -60.1405 -60.0884 -59.9646 -31.1024 -26.7291 -16.8011 -13.8998
   -13.7033 -13.2562 -10.1031  -9.4561  -9.0374  -8.8168  -8.6207  -8.3760
    -7.4630  -6.1468  -3.6185  -1.8318  -0.1143   0.8311

          k = 0.4753-0.0443 0.0000 ( 16817 PWs)   bands (ev):

   -96.5663 -60.1405 -60.0883 -59.9646 -31.1029 -26.7290 -16.8013 -13.8996
   -13.7004 -13.2560 -10.1033  -9.4549  -9.0355  -8.8170  -8.6215  -8.3767
    -7.4632  -6.1594  -3.6185  -1.8396  -0.0827   0.7919

          k = 0.4649-0.0433 0.0000 ( 16825 PWs)   bands (ev):

   -96.5663 -60.1405 -60.0883 -59.9646 -31.1035 -26.7289 -16.8017 -13.8993
   -13.6965 -13.2557 -10.1036  -9.4531  -9.0327  -8.8171  -8.6228  -8.3776
    -7.4635  -6.1768  -3.6186  -1.8500  -0.0396   0.7409

          k = 0.4546-0.0423 0.0000 ( 16819 PWs)   bands (ev):

   -96.5663 -60.1405 -60.0882 -59.9646 -31.1044 -26.7287 -16.8021 -13.8991
   -13.6913 -13.2553 -10.1039  -9.4509  -9.0293  -8.8174  -8.6244  -8.3787
    -7.4639  -6.1987  -3.6186  -1.8625   0.0141   0.6811

          k = 0.4443-0.0414 0.0000 ( 16826 PWs)   bands (ev):

   -96.5663 -60.1405 -60.0881 -59.9646 -31.1055 -26.7285 -16.8026 -13.8988
   -13.6850 -13.2548 -10.1044  -9.4483  -9.0251  -8.8176  -8.6265  -8.3799
    -7.4643  -6.2250  -3.6186  -1.8768   0.0768   0.6155

          k = 0.4339-0.0404 0.0000 ( 16850 PWs)   bands (ev):

   -96.5663 -60.1405 -60.0879 -59.9646 -31.1067 -26.7283 -16.8033 -13.8986
   -13.6775 -13.2543 -10.1049  -9.4451  -9.0202  -8.8179  -8.6291  -8.3812
    -7.4649  -6.2552  -3.6186  -1.8922   0.1457   0.5481

          k = 0.4236-0.0395 0.0000 ( 16852 PWs)   bands (ev):

   -96.5663 -60.1405 -60.0878 -59.9646 -31.1081 -26.7280 -16.8040 -13.8984
   -13.6689 -13.2535 -10.1054  -9.4416  -9.0146  -8.8183  -8.6324  -8.3826
    -7.4655  -6.2891  -3.6186  -1.9085   0.2134   0.4871

          k = 0.4133-0.0385 0.0000 ( 16864 PWs)   bands (ev):

   -96.5663 -60.1406 -60.0876 -59.9647 -31.1097 -26.7277 -16.8048 -13.8984
   -13.6592 -13.2527 -10.1060  -9.4376  -9.0084  -8.8187  -8.6362  -8.3839
    -7.4663  -6.3262  -3.6187  -1.9252   0.2544   0.4583

          k = 0.4029-0.0375 0.0000 ( 16871 PWs)   bands (ev):

   -96.5663 -60.1406 -60.0874 -59.9647 -31.1115 -26.7274 -16.8057 -13.8984
   -13.6483 -13.2517 -10.1068  -9.4333  -9.0015  -8.8191  -8.6408  -8.3851
    -7.4672  -6.3661  -3.6187  -1.9422   0.2307   0.5000

          k = 0.3926-0.0366 0.0000 ( 16866 PWs)   bands (ev):

   -96.5664 -60.1406 -60.0872 -59.9647 -31.1134 -26.7271 -16.8066 -13.8985
   -13.6364 -13.2504 -10.1075  -9.4286  -8.9942  -8.8195  -8.6462  -8.3861
    -7.4682  -6.4085  -3.6187  -1.9591   0.1673   0.5870

          k = 0.3823-0.0356 0.0000 ( 16860 PWs)   bands (ev):

   -96.5664 -60.1406 -60.0870 -59.9647 -31.1155 -26.7267 -16.8076 -13.8987
   -13.6234 -13.2490 -10.1084  -9.4236  -8.9863  -8.8199  -8.6525  -8.3869
    -7.4694  -6.4529  -3.6187  -1.9759   0.0920   0.6910

          k = 0.3719-0.0346 0.0000 ( 16878 PWs)   bands (ev):

   -96.5664 -60.1406 -60.0868 -59.9647 -31.1177 -26.7263 -16.8087 -13.8991
   -13.6096 -13.2472 -10.1093  -9.4184  -8.9780  -8.8204  -8.6596  -8.3874
    -7.4708  -6.4989  -3.6187  -1.9924   0.0130   0.8033

          k = 0.3616-0.0337 0.0000 ( 16880 PWs)   bands (ev):

   -96.5664 -60.1406 -60.0865 -59.9647 -31.1200 -26.7259 -16.8099 -13.8996
   -13.5950 -13.2451 -10.1102  -9.4129  -8.9693  -8.8209  -8.6677  -8.3875
    -7.4723  -6.5462  -3.6187  -2.0085  -0.0669   0.9194

          k = 0.3513-0.0327 0.0000 ( 16877 PWs)   bands (ev):

   -96.5664 -60.1406 -60.0863 -59.9647 -31.1224 -26.7254 -16.8111 -13.9001
   -13.5797 -13.2426 -10.1112  -9.4072  -8.9603  -8.8214  -8.6766  -8.3872
    -7.4741  -6.5942  -3.6187  -2.0243  -0.1466   1.0309

          k = 0.3409-0.0318 0.0000 ( 16881 PWs)   bands (ev):

   -96.5664 -60.1407 -60.0860 -59.9647 -31.1250 -26.7250 -16.8124 -13.9008
   -13.5638 -13.2396 -10.1123  -9.4013  -8.9512  -8.8219  -8.6863  -8.3865
    -7.4761  -6.6426  -3.6188  -2.0396  -0.2256   1.0831

          k = 0.3306-0.0308 0.0000 ( 16879 PWs)   bands (ev):

   -96.5664 -60.1407 -60.0857 -59.9647 -31.1276 -26.7245 -16.8137 -13.9015
   -13.5475 -13.2360 -10.1134  -9.3954  -8.9419  -8.8226  -8.6967  -8.3853
    -7.4784  -6.6910  -3.6189  -2.0546  -0.3033   1.0249

          k = 0.3203-0.0298 0.0000 ( 16899 PWs)   bands (ev):

   -96.5664 -60.1407 -60.0854 -59.9647 -31.1304 -26.7240 -16.8151 -13.9023
   -13.5311 -13.2317 -10.1146  -9.3894  -8.9327  -8.8235  -8.7077  -8.3838
    -7.4810  -6.7391  -3.6190  -2.0693  -0.3794   0.9456

          k = 0.3100-0.0289 0.0000 ( 16907 PWs)   bands (ev):

   -96.5664 -60.1407 -60.0851 -59.9647 -31.1332 -26.7236 -16.8165 -13.9032
   -13.5147 -13.2265 -10.1158  -9.3834  -8.9237  -8.8249  -8.7187  -8.3819
    -7.4840  -6.7865  -3.6191  -2.0836  -0.4537   0.8647

          k = 0.2996-0.0279 0.0000 ( 16914 PWs)   bands (ev):

   -96.5665 -60.1407 -60.0848 -59.9647 -31.1361 -26.7231 -16.8179 -13.9041
   -13.4986 -13.2202 -10.1171  -9.3775  -8.9150  -8.8272  -8.7292  -8.3796
    -7.4873  -6.8330  -3.6193  -2.0976  -0.5261   0.7852

          k = 0.2893-0.0269 0.0000 ( 16904 PWs)   bands (ev):

   -96.5665 -60.1408 -60.0845 -59.9647 -31.1390 -26.7226 -16.8194 -13.9050
   -13.4830 -13.2127 -10.1183  -9.3717  -8.9068  -8.8310  -8.7385  -8.3770
    -7.4911  -6.8781  -3.6195  -2.1114  -0.5964   0.7078

          k = 0.2790-0.0260 0.0000 ( 16899 PWs)   bands (ev):

   -96.5665 -60.1408 -60.0842 -59.9647 -31.1420 -26.7221 -16.8209 -13.9060
   -13.4681 -13.2039 -10.1197  -9.3660  -8.8993  -8.8370  -8.7456  -8.3741
    -7.4953  -6.9217  -3.6197  -2.1250  -0.6644   0.6328

          k = 0.2686-0.0250 0.0000 ( 16903 PWs)   bands (ev):

   -96.5665 -60.1408 -60.0839 -59.9647 -31.1450 -26.7216 -16.8224 -13.9069
   -13.4543 -13.1935 -10.1210  -9.3606  -8.8926  -8.8458  -8.7497  -8.3709
    -7.5000  -6.9635  -3.6200  -2.1384  -0.7300   0.5603

          k = 0.2583-0.0241 0.0000 ( 16899 PWs)   bands (ev):

   -96.5665 -60.1408 -60.0836 -59.9647 -31.1480 -26.7211 -16.8238 -13.9079
   -13.4416 -13.1816 -10.1223  -9.3554  -8.8873  -8.8572  -8.7505  -8.3676
    -7.5054  -7.0032  -3.6204  -2.1517  -0.7931   0.4903

          k = 0.2480-0.0231 0.0000 ( 16886 PWs)   bands (ev):

   -96.5665 -60.1409 -60.0832 -59.9647 -31.1510 -26.7206 -16.8253 -13.9088
   -13.4303 -13.1679 -10.1237  -9.3505  -8.8856  -8.8686  -8.7483  -8.3642
    -7.5113  -7.0407  -3.6208  -2.1649  -0.8538   0.4230

          k = 0.2376-0.0221 0.0000 ( 16880 PWs)   bands (ev):

   -96.5665 -60.1409 -60.0829 -59.9647 -31.1540 -26.7201 -16.8268 -13.9097
   -13.4204 -13.1526 -10.1250  -9.3460  -8.8950  -8.8717  -8.7437  -8.3607
    -7.5179  -7.0757  -3.6213  -2.1781  -0.9118   0.3584

          k = 0.2273-0.0212 0.0000 ( 16890 PWs)   bands (ev):

   -96.5666 -60.1409 -60.0826 -59.9647 -31.1570 -26.7196 -16.8283 -13.9106
   -13.4119 -13.1358 -10.1264  -9.3419  -8.9121  -8.8695  -8.7373  -8.3571
    -7.5252  -7.1081  -3.6218  -2.1912  -0.9671   0.2964

          k = 0.2170-0.0202 0.0000 ( 16899 PWs)   bands (ev):

   -96.5666 -60.1409 -60.0823 -59.9647 -31.1599 -26.7191 -16.8298 -13.9114
   -13.4047 -13.1176 -10.1277  -9.3382  -8.9313  -8.8667  -8.7296  -8.3535
    -7.5333  -7.1379  -3.6224  -2.2042  -1.0197   0.2372

          k = 0.2066-0.0192 0.0000 ( 16911 PWs)   bands (ev):

   -96.5666 -60.1409 -60.0820 -59.9647 -31.1628 -26.7187 -16.8312 -13.9122
   -13.3987 -13.0983 -10.1290  -9.3350  -8.9517  -8.8641  -8.7209  -8.3500
    -7.5419  -7.1650  -3.6230  -2.2172  -1.0696   0.1806

          k = 0.1963-0.0183 0.0000 ( 16907 PWs)   bands (ev):

   -96.5666 -60.1410 -60.0817 -59.9647 -31.1657 -26.7182 -16.8326 -13.9130
   -13.3937 -13.0781 -10.1304  -9.3323  -8.9725  -8.8617  -8.7115  -8.3466
    -7.5513  -7.1894  -3.6237  -2.2301  -1.1167   0.1268

          k = 0.1860-0.0173 0.0000 ( 16909 PWs)   bands (ev):

   -96.5666 -60.1410 -60.0814 -59.9647 -31.1684 -26.7178 -16.8340 -13.9137
   -13.3897 -13.0573 -10.1316  -9.3301  -8.9936  -8.8596  -8.7017  -8.3433
    -7.5611  -7.2111  -3.6244  -2.2429  -1.1610   0.0757

          k = 0.1756-0.0164 0.0000 ( 16915 PWs)   bands (ev):

   -96.5666 -60.1410 -60.0811 -59.9647 -31.1711 -26.7174 -16.8353 -13.9143
   -13.3865 -13.0361 -10.1329  -9.3284  -9.0147  -8.8576  -8.6918  -8.3401
    -7.5714  -7.2303  -3.6252  -2.2556  -1.2026   0.0274

          k = 0.1653-0.0154 0.0000 ( 16911 PWs)   bands (ev):

   -96.5666 -60.1410 -60.0808 -59.9647 -31.1737 -26.7170 -16.8366 -13.9150
   -13.3839 -13.0147 -10.1341  -9.3273  -9.0356  -8.8558  -8.6817  -8.3371
    -7.5819  -7.2471  -3.6260  -2.2682  -1.2414  -0.0182

          k = 0.1550-0.0144 0.0000 ( 16916 PWs)   bands (ev):

   -96.5666 -60.1410 -60.0805 -59.9647 -31.1762 -26.7166 -16.8379 -13.9155
   -13.3819 -12.9935 -10.1353  -9.3267  -9.0559  -8.8541  -8.6718  -8.3344
    -7.5925  -7.2618  -3.6268  -2.2805  -1.2774  -0.0611

          k = 0.1446-0.0135 0.0000 ( 16919 PWs)   bands (ev):

   -96.5667 -60.1411 -60.0803 -59.9647 -31.1786 -26.7163 -16.8391 -13.9160
   -13.3804 -12.9725 -10.1364  -9.3268  -9.0757  -8.8525  -8.6620  -8.3318
    -7.6030  -7.2746  -3.6277  -2.2926  -1.3107  -0.1012

          k = 0.1343-0.0125 0.0000 ( 16904 PWs)   bands (ev):

   -96.5667 -60.1411 -60.0800 -59.9647 -31.1809 -26.7159 -16.8402 -13.9165
   -13.3792 -12.9520 -10.1375  -9.3274  -9.0945  -8.8510  -8.6526  -8.3294
    -7.6133  -7.2855  -3.6285  -2.3043  -1.3414  -0.1385

          k = 0.1240-0.0115 0.0000 ( 16904 PWs)   bands (ev):

   -96.5667 -60.1411 -60.0798 -59.9647 -31.1830 -26.7156 -16.8413 -13.9169
   -13.3783 -12.9323 -10.1385  -9.3285  -9.1123  -8.8496  -8.6435  -8.3273
    -7.6231  -7.2950  -3.6294  -2.3156  -1.3695  -0.1731

          k = 0.1136-0.0106 0.0000 ( 16900 PWs)   bands (ev):

   -96.5667 -60.1411 -60.0796 -59.9647 -31.1850 -26.7153 -16.8422 -13.9173
   -13.3777 -12.9134 -10.1394  -9.3302  -9.1289  -8.8483  -8.6349  -8.3253
    -7.6325  -7.3030  -3.6302  -2.3265  -1.3950  -0.2049

          k = 0.1033-0.0096 0.0000 ( 16914 PWs)   bands (ev):

   -96.5667 -60.1411 -60.0794 -59.9647 -31.1868 -26.7150 -16.8432 -13.9176
   -13.3773 -12.8956 -10.1403  -9.3324  -9.1442  -8.8470  -8.6268  -8.3236
    -7.6412  -7.3099  -3.6311  -2.3367  -1.4180  -0.2340

          k = 0.0930-0.0087 0.0000 ( 16928 PWs)   bands (ev):

   -96.5667 -60.1411 -60.0792 -59.9647 -31.1885 -26.7148 -16.8440 -13.9179
   -13.3770 -12.8790 -10.1411  -9.3350  -9.1579  -8.8459  -8.6193  -8.3221
    -7.6492  -7.3157  -3.6318  -2.3462  -1.4385  -0.2602

          k = 0.0827-0.0077 0.0000 ( 16926 PWs)   bands (ev):

   -96.5667 -60.1411 -60.0790 -59.9647 -31.1901 -26.7146 -16.8448 -13.9181
   -13.3768 -12.8637 -10.1418  -9.3379  -9.1701  -8.8448  -8.6124  -8.3209
    -7.6565  -7.3207  -3.6326  -2.3551  -1.4567  -0.2838

          k = 0.0723-0.0067 0.0000 ( 16912 PWs)   bands (ev):

   -96.5667 -60.1412 -60.0789 -59.9647 -31.1914 -26.7144 -16.8455 -13.9183
   -13.3767 -12.8499 -10.1425  -9.3411  -9.1807  -8.8438  -8.6062  -8.3198
    -7.6629  -7.3248  -3.6333  -2.3630  -1.4726  -0.3045

          k = 0.0620-0.0058 0.0000 ( 16907 PWs)   bands (ev):

   -96.5667 -60.1412 -60.0787 -59.9647 -31.1926 -26.7142 -16.8461 -13.9185
   -13.3767 -12.8377 -10.1430  -9.3443  -9.1898  -8.8430  -8.6008  -8.3189
    -7.6685  -7.3282  -3.6339  -2.3701  -1.4863  -0.3225

          k = 0.0517-0.0048 0.0000 ( 16921 PWs)   bands (ev):

   -96.5667 -60.1412 -60.0786 -59.9647 -31.1937 -26.7141 -16.8466 -13.9187
   -13.3767 -12.8271 -10.1435  -9.3475  -9.1972  -8.8422  -8.5961  -8.3181
    -7.6732  -7.3310  -3.6344  -2.3762  -1.4977  -0.3377

          k = 0.0413-0.0038 0.0000 ( 16925 PWs)   bands (ev):

   -96.5667 -60.1412 -60.0785 -59.9647 -31.1945 -26.7140 -16.8470 -13.9188
   -13.3767 -12.8184 -10.1439  -9.3504  -9.2032  -8.8416  -8.5922  -8.3175
    -7.6771  -7.3332  -3.6349  -2.3813  -1.5070  -0.3502

          k = 0.0310-0.0029 0.0000 ( 16913 PWs)   bands (ev):

   -96.5667 -60.1412 -60.0785 -59.9647 -31.1952 -26.7139 -16.8473 -13.9189
   -13.3768 -12.8115 -10.1442  -9.3528  -9.2077  -8.8412  -8.5892  -8.3171
    -7.6801  -7.3349  -3.6352  -2.3853  -1.5142  -0.3599

          k = 0.0207-0.0019 0.0000 ( 16917 PWs)   bands (ev):

   -96.5667 -60.1412 -60.0784 -59.9647 -31.1956 -26.7138 -16.8476 -13.9190
   -13.3768 -12.8066 -10.1445  -9.3547  -9.2109  -8.8408  -8.5870  -8.3168
    -7.6823  -7.3360  -3.6355  -2.3882  -1.5193  -0.3668

          k = 0.0103-0.0010 0.0000 ( 16910 PWs)   bands (ev):

   -96.5667 -60.1412 -60.0784 -59.9647 -31.1959 -26.7137 -16.8477 -13.9190
   -13.3768 -12.8036 -10.1446  -9.3558  -9.2128  -8.8406  -8.5857  -8.3166
    -7.6835  -7.3367  -3.6356  -2.3899  -1.5223  -0.3710

          k = 0.0000 0.0000 0.0000 ( 16899 PWs)   bands (ev):

   -96.5667 -60.1412 -60.0784 -59.9647 -31.1960 -26.7137 -16.8478 -13.9190
   -13.3768 -12.8026 -10.1446  -9.3562  -9.2134  -8.8405  -8.5852  -8.3165
    -7.6840  -7.3370  -3.6357  -2.3905  -1.5234  -0.3723

          k =-0.0006 0.0071 0.0000 ( 16906 PWs)   bands (ev):

   -96.5667 -60.1412 -60.0784 -59.9647 -31.1960 -26.7137 -16.8482 -13.9188
   -13.3772 -12.8027 -10.1434  -9.3562  -9.2132  -8.8404  -8.5852  -8.3165
    -7.6843  -7.3369  -3.6359  -2.3909  -1.5231  -0.3718

          k =-0.0013 0.0142 0.0000 ( 16907 PWs)   bands (ev):

   -96.5667 -60.1412 -60.0784 -59.9647 -31.1959 -26.7137 -16.8496 -13.9181
   -13.3782 -12.8030 -10.1396  -9.3560  -9.2124  -8.8399  -8.5852  -8.3165
    -7.6852  -7.3367  -3.6367  -2.3921  -1.5224  -0.3700

          k =-0.0019 0.0213 0.0000 ( 16911 PWs)   bands (ev):

   -96.5667 -60.1412 -60.0784 -59.9647 -31.1958 -26.7137 -16.8520 -13.9170
   -13.3800 -12.8036 -10.1334  -9.3558  -9.2111  -8.8391  -8.5852  -8.3165
    -7.6866  -7.3363  -3.6380  -2.3940  -1.5212  -0.3671

          k =-0.0026 0.0284 0.0000 ( 16906 PWs)   bands (ev):

   -96.5667 -60.1412 -60.0784 -59.9647 -31.1956 -26.7137 -16.8552 -13.9154
   -13.3824 -12.8043 -10.1247  -9.3554  -9.2093  -8.8380  -8.5852  -8.3164
    -7.6887  -7.3358  -3.6398  -2.3968  -1.5195  -0.3630

          k =-0.0032 0.0355 0.0000 ( 16920 PWs)   bands (ev):

   -96.5667 -60.1412 -60.0784 -59.9647 -31.1954 -26.7137 -16.8594 -13.9134
   -13.3855 -12.8053 -10.1137  -9.3550  -9.2070  -8.8367  -8.5852  -8.3164
    -7.6913  -7.3352  -3.6422  -2.4005  -1.5173  -0.3578

          k =-0.0038 0.0426 0.0000 ( 16929 PWs)   bands (ev):

   -96.5667 -60.1412 -60.0784 -59.9647 -31.1951 -26.7136 -16.8644 -13.9110
   -13.3892 -12.8065 -10.1003  -9.3544  -9.2042  -8.8350  -8.5851  -8.3164
    -7.6945  -7.3343  -3.6450  -2.4050  -1.5145  -0.3514

          k =-0.0045 0.0497 0.0000 ( 16933 PWs)   bands (ev):

   -96.5667 -60.1412 -60.0784 -59.9647 -31.1948 -26.7136 -16.8702 -13.9082
   -13.3935 -12.8079 -10.0847  -9.3536  -9.2010  -8.8330  -8.5851  -8.3163
    -7.6982  -7.3333  -3.6483  -2.4105  -1.5111  -0.3439

          k =-0.0051 0.0569 0.0000 ( 16927 PWs)   bands (ev):

   -96.5667 -60.1412 -60.0784 -59.9647 -31.1945 -26.7135 -16.8769 -13.9049
   -13.3983 -12.8094 -10.0670  -9.3527  -9.1974  -8.8308  -8.5850  -8.3162
    -7.7024  -7.3320  -3.6521  -2.4170  -1.5070  -0.3352

          k =-0.0057 0.0640 0.0000 ( 16933 PWs)   bands (ev):

   -96.5667 -60.1412 -60.0784 -59.9647 -31.1941 -26.7135 -16.8844 -13.9013
   -13.4037 -12.8112 -10.0472  -9.3517  -9.1935  -8.8283  -8.5850  -8.3161
    -7.7072  -7.3306  -3.6563  -2.4246  -1.5022  -0.3253

          k =-0.0064 0.0711 0.0000 ( 16940 PWs)   bands (ev):

   -96.5667 -60.1412 -60.0784 -59.9647 -31.1937 -26.7135 -16.8926 -13.8974
   -13.4095 -12.8131 -10.0254  -9.3504  -9.1891  -8.8256  -8.5849  -8.3160
    -7.7124  -7.3288  -3.6610  -2.4333  -1.4967  -0.3143

          k =-0.0070 0.0782 0.0000 ( 16946 PWs)   bands (ev):

   -96.5667 -60.1412 -60.0784 -59.9647 -31.1932 -26.7134 -16.9016 -13.8931
   -13.4158 -12.8152 -10.0019  -9.3490  -9.1845  -8.8226  -8.5848  -8.3158
    -7.7181  -7.3267  -3.6661  -2.4432  -1.4904  -0.3022

          k =-0.0077 0.0853 0.0000 ( 16942 PWs)   bands (ev):

   -96.5667 -60.1412 -60.0784 -59.9647 -31.1927 -26.7133 -16.9111 -13.8885
   -13.4224 -12.8174  -9.9767  -9.3473  -9.1796  -8.8194  -8.5847  -8.3156
    -7.7242  -7.3243  -3.6716  -2.4543  -1.4833  -0.2889

          k =-0.0083 0.0924 0.0000 ( 16939 PWs)   bands (ev):

   -96.5667 -60.1412 -60.0784 -59.9647 -31.1921 -26.7133 -16.9214 -13.8836
   -13.4294 -12.8198  -9.9499  -9.3455  -9.1744  -8.8161  -8.5846  -8.3154
    -7.7307  -7.3215  -3.6774  -2.4668  -1.4753  -0.2745

          k =-0.0089 0.0995 0.0000 ( 16940 PWs)   bands (ev):

   -96.5667 -60.1412 -60.0784 -59.9647 -31.1916 -26.7132 -16.9321 -13.8785
   -13.4367 -12.8224  -9.9218  -9.3434  -9.1690  -8.8126  -8.5844  -8.3151
    -7.7376  -7.3183  -3.6837  -2.4805  -1.4664  -0.2590

          k =-0.0096 0.1066 0.0000 ( 16952 PWs)   bands (ev):

   -96.5667 -60.1412 -60.0784 -59.9647 -31.1909 -26.7131 -16.9434 -13.8731
   -13.4442 -12.8250  -9.8924  -9.3411  -9.1634  -8.8089  -8.5842  -8.3149
    -7.7449  -7.3145  -3.6902  -2.4957  -1.4565  -0.2423

          k =-0.0102 0.1137 0.0000 ( 16950 PWs)   bands (ev):

   -96.5667 -60.1412 -60.0784 -59.9647 -31.1903 -26.7130 -16.9551 -13.8675
   -13.4519 -12.8277  -9.8619  -9.3386  -9.1576  -8.8051  -8.5840  -8.3145
    -7.7526  -7.3103  -3.6971  -2.5123  -1.4457  -0.2246

          k =-0.0109 0.1208 0.0000 ( 16949 PWs)   bands (ev):

   -96.5667 -60.1412 -60.0784 -59.9647 -31.1897 -26.7129 -16.9673 -13.8617
   -13.4597 -12.8305  -9.8306  -9.3358  -9.1517  -8.8012  -8.5837  -8.3142
    -7.7607  -7.3054  -3.7042  -2.5303  -1.4339  -0.2059

          k =-0.0115 0.1279 0.0000 ( 16960 PWs)   bands (ev):

   -96.5667 -60.1412 -60.0784 -59.9647 -31.1890 -26.7129 -16.9798 -13.8558
   -13.4677 -12.8335  -9.7985  -9.3327  -9.1457  -8.7973  -8.5834  -8.3138
    -7.7690  -7.2998  -3.7116  -2.5497  -1.4212  -0.1861

          k =-0.0121 0.1350 0.0000 ( 16966 PWs)   bands (ev):

   -96.5667 -60.1412 -60.0784 -59.9647 -31.1883 -26.7128 -16.9926 -13.8498
   -13.4757 -12.8364  -9.7659  -9.3294  -9.1396  -8.7933  -8.5830  -8.3134
    -7.7777  -7.2936  -3.7192  -2.5705  -1.4075  -0.1652

          k =-0.0128 0.1421 0.0000 ( 16965 PWs)   bands (ev):

   -96.5667 -60.1412 -60.0784 -59.9647 -31.1875 -26.7127 -17.0056 -13.8436
   -13.4837 -12.8395  -9.7329  -9.3258  -9.1335  -8.7893  -8.5826  -8.3130
    -7.7867  -7.2865  -3.7270  -2.5927  -1.3929  -0.1434

          k =-0.0134 0.1492 0.0000 ( 16963 PWs)   bands (ev):

   -96.5667 -60.1412 -60.0784 -59.9647 -31.1868 -26.7126 -17.0188 -13.8374
   -13.4916 -12.8425  -9.6997  -9.3219  -9.1272  -8.7853  -8.5822  -8.3125
    -7.7960  -7.2786  -3.7350  -2.6163  -1.3774  -0.1207

          k =-0.0140 0.1563 0.0000 ( 16967 PWs)   bands (ev):

   -96.5667 -60.1413 -60.0784 -59.9647 -31.1861 -26.7125 -17.0322 -13.8312
   -13.4995 -12.8456  -9.6665  -9.3177  -9.1210  -8.7814  -8.5816  -8.3120
    -7.8055  -7.2699  -3.7431  -2.6412  -1.3610  -0.0970

          k =-0.0147 0.1635 0.0000 ( 16973 PWs)   bands (ev):

   -96.5667 -60.1413 -60.0784 -59.9647 -31.1853 -26.7124 -17.0456 -13.8250
   -13.5073 -12.8488  -9.6336  -9.3132  -9.1146  -8.7776  -8.5810  -8.3115
    -7.8153  -7.2602  -3.7513  -2.6673  -1.3437  -0.0725

          k =-0.0153 0.1706 0.0000 ( 16962 PWs)   bands (ev):

   -96.5667 -60.1413 -60.0784 -59.9647 -31.1845 -26.7123 -17.0590 -13.8188
   -13.5150 -12.8519  -9.6011  -9.3084  -9.1082  -8.7738  -8.5804  -8.3110
    -7.8254  -7.2496  -3.7595  -2.6945  -1.3257  -0.0472

          k =-0.0160 0.1777 0.0000 ( 16961 PWs)   bands (ev):

   -96.5667 -60.1413 -60.0784 -59.9647 -31.1838 -26.7122 -17.0723 -13.8127
   -13.5224 -12.8550  -9.5692  -9.3031  -9.1017  -8.7703  -8.5796  -8.3105
    -7.8356  -7.2380  -3.7678  -2.7228  -1.3070  -0.0211

          k =-0.0166 0.1848 0.0000 ( 16969 PWs)   bands (ev):

   -96.5667 -60.1413 -60.0784 -59.9647 -31.1830 -26.7121 -17.0856 -13.8067
   -13.5297 -12.8581  -9.5382  -9.2974  -9.0952  -8.7669  -8.5788  -8.3101
    -7.8461  -7.2254  -3.7760  -2.7520  -1.2876   0.0055

          k =-0.0172 0.1919 0.0000 ( 16975 PWs)   bands (ev):

   -96.5667 -60.1413 -60.0784 -59.9647 -31.1823 -26.7120 -17.0987 -13.8008
   -13.5367 -12.8611  -9.5084  -9.2913  -9.0884  -8.7637  -8.5779  -8.3096
    -7.8567  -7.2119  -3.7843  -2.7821  -1.2677   0.0328

          k =-0.0179 0.1990 0.0000 ( 16984 PWs)   bands (ev):

   -96.5667 -60.1413 -60.0784 -59.9647 -31.1815 -26.7119 -17.1117 -13.7950
   -13.5434 -12.8641  -9.4800  -9.2846  -9.0815  -8.7607  -8.5770  -8.3091
    -7.8675  -7.1975  -3.7924  -2.8128  -1.2473   0.0604

          k =-0.0185 0.2061 0.0000 ( 16988 PWs)   bands (ev):

   -96.5667 -60.1413 -60.0784 -59.9647 -31.1808 -26.7118 -17.1243 -13.7895
   -13.5499 -12.8671  -9.4532  -9.2773  -9.0743  -8.7580  -8.5760  -8.3087
    -7.8784  -7.1821  -3.8005  -2.8441  -1.2265   0.0884

          k =-0.0192 0.2132 0.0000 ( 16980 PWs)   bands (ev):

   -96.5667 -60.1413 -60.0784 -59.9647 -31.1801 -26.7117 -17.1367 -13.7841
   -13.5560 -12.8700  -9.4284  -9.2694  -9.0667  -8.7555  -8.5749  -8.3083
    -7.8893  -7.1660  -3.8084  -2.8757  -1.2055   0.1165

          k =-0.0198 0.2203 0.0000 ( 16972 PWs)   bands (ev):

   -96.5667 -60.1413 -60.0784 -59.9647 -31.1794 -26.7116 -17.1487 -13.7789
   -13.5618 -12.8727  -9.4057  -9.2608  -9.0587  -8.7533  -8.5738  -8.3080
    -7.9002  -7.1491  -3.8162  -2.9075  -1.1842   0.1445

          k =-0.0204 0.2274 0.0000 ( 16976 PWs)   bands (ev):

   -96.5667 -60.1413 -60.0784 -59.9647 -31.1787 -26.7115 -17.1604 -13.7740
   -13.5673 -12.8755  -9.3855  -9.2515  -9.0502  -8.7515  -8.5726  -8.3077
    -7.9112  -7.1316  -3.8237  -2.9394  -1.1629   0.1723

          k =-0.0211 0.2345 0.0000 ( 16974 PWs)   bands (ev):

   -96.5667 -60.1413 -60.0784 -59.9647 -31.1780 -26.7114 -17.1716 -13.7694
   -13.5724 -12.8781  -9.3676  -9.2418  -9.0410  -8.7499  -8.5714  -8.3074
    -7.9220  -7.1136  -3.8311  -2.9711  -1.1417   0.1997

          k =-0.0217 0.2416 0.0000 ( 16978 PWs)   bands (ev):

   -96.5667 -60.1413 -60.0784 -59.9647 -31.1774 -26.7113 -17.1823 -13.7651
   -13.5771 -12.8806  -9.3522  -9.2317  -9.0311  -8.7487  -8.5702  -8.3072
    -7.9327  -7.0953  -3.8381  -3.0024  -1.1206   0.2262

          k =-0.0224 0.2487 0.0000 ( 16968 PWs)   bands (ev):

   -96.5667 -60.1413 -60.0784 -59.9647 -31.1768 -26.7113 -17.1925 -13.7611
   -13.5815 -12.8829  -9.3389  -9.2217  -9.0205  -8.7478  -8.5691  -8.3071
    -7.9432  -7.0768  -3.8449  -3.0331  -1.0999   0.2518

          k =-0.0230 0.2558 0.0000 ( 16970 PWs)   bands (ev):

   -96.5667 -60.1413 -60.0784 -59.9647 -31.1762 -26.7112 -17.2022 -13.7574
   -13.5854 -12.8852  -9.3276  -9.2121  -9.0091  -8.7473  -8.5679  -8.3070
    -7.9534  -7.0583  -3.8514  -3.0630  -1.0796   0.2760

          k =-0.0236 0.2629 0.0000 ( 16970 PWs)   bands (ev):

   -96.5667 -60.1413 -60.0784 -59.9647 -31.1756 -26.7111 -17.2113 -13.7540
   -13.5890 -12.8873  -9.3178  -9.2032  -8.9971  -8.7470  -8.5668  -8.3069
    -7.9632  -7.0400  -3.8575  -3.0919  -1.0600   0.2986

          k =-0.0243 0.2701 0.0000 ( 16970 PWs)   bands (ev):

   -96.5667 -60.1413 -60.0784 -59.9647 -31.1751 -26.7110 -17.2198 -13.7510
   -13.5922 -12.8893  -9.3094  -9.1951  -8.9846  -8.7471  -8.5658  -8.3069
    -7.9727  -7.0221  -3.8632  -3.1196  -1.0411   0.3192

          k =-0.0249 0.2772 0.0000 ( 16972 PWs)   bands (ev):

   -96.5667 -60.1413 -60.0784 -59.9647 -31.1746 -26.7110 -17.2276 -13.7483
   -13.5950 -12.8911  -9.3021  -9.1881  -8.9718  -8.7475  -8.5649  -8.3070
    -7.9816  -7.0048  -3.8685  -3.1458  -1.0231   0.3377

          k =-0.0255 0.2843 0.0000 ( 16982 PWs)   bands (ev):

   -96.5667 -60.1413 -60.0784 -59.9647 -31.1742 -26.7109 -17.2348 -13.7459
   -13.5975 -12.8928  -9.2958  -9.1821  -8.9590  -8.7483  -8.5640  -8.3071
    -7.9900  -6.9883  -3.8734  -3.1703  -1.0063   0.3540

          k =-0.0262 0.2914 0.0000 ( 16978 PWs)   bands (ev):

   -96.5667 -60.1413 -60.0784 -59.9647 -31.1738 -26.7109 -17.2413 -13.7438
   -13.5996 -12.8943  -9.2903  -9.1770  -8.9464  -8.7493  -8.5633  -8.3072
    -7.9978  -6.9729  -3.8779  -3.1929  -0.9906   0.3678

          k =-0.0268 0.2985 0.0000 ( 16970 PWs)   bands (ev):

   -96.5667 -60.1413 -60.0784 -59.9647 -31.1735 -26.7108 -17.2471 -13.7420
   -13.6014 -12.8957  -9.2855  -9.1728  -8.9343  -8.7505  -8.5626  -8.3074
    -8.0048  -6.9587  -3.8819  -3.2134  -0.9764   0.3794

          k =-0.0275 0.3056 0.0000 ( 16963 PWs)   bands (ev):

   -96.5667 -60.1413 -60.0784 -59.9647 -31.1731 -26.7108 -17.2521 -13.7405
   -13.6029 -12.8969  -9.2815  -9.1695  -8.9230  -8.7519  -8.5621  -8.3075
    -8.0111  -6.9459  -3.8853  -3.2316  -0.9636   0.3887

          k =-0.0281 0.3127 0.0000 ( 16955 PWs)   bands (ev):

   -96.5667 -60.1413 -60.0784 -59.9647 -31.1729 -26.7107 -17.2564 -13.7393
   -13.6041 -12.8979  -9.2780  -9.1668  -8.9127  -8.7534  -8.5617  -8.3077
    -8.0165  -6.9348  -3.8883  -3.2474  -0.9526   0.3960

          k =-0.0287 0.3198 0.0000 ( 16950 PWs)   bands (ev):

   -96.5667 -60.1413 -60.0784 -59.9647 -31.1727 -26.7107 -17.2599 -13.7383
   -13.6051 -12.8987  -9.2752  -9.1648  -8.9038  -8.7550  -8.5613  -8.3078
    -8.0210  -6.9254  -3.8908  -3.2605  -0.9434   0.4016

          k =-0.0294 0.3269 0.0000 ( 16948 PWs)   bands (ev):

   -96.5667 -60.1413 -60.0784 -59.9647 -31.1725 -26.7107 -17.2627 -13.7376
   -13.6058 -12.8993  -9.2730  -9.1633  -8.8965  -8.7564  -8.5611  -8.3080
    -8.0246  -6.9180  -3.8927  -3.2708  -0.9361   0.4056

          k =-0.0300 0.3340 0.0000 ( 16954 PWs)   bands (ev):

   -96.5667 -60.1413 -60.0784 -59.9647 -31.1724 -26.7107 -17.2647 -13.7371
   -13.6063 -12.8998  -9.2715  -9.1622  -8.8910  -8.7576  -8.5609  -8.3081
    -8.0271  -6.9126  -3.8941  -3.2783  -0.9308   0.4083

          k =-0.0307 0.3411 0.0000 ( 16958 PWs)   bands (ev):

   -96.5667 -60.1413 -60.0784 -59.9647 -31.1723 -26.7107 -17.2659 -13.7368
   -13.6066 -12.9001  -9.2706  -9.1616  -8.8876  -8.7583  -8.5608  -8.3081
    -8.0287  -6.9093  -3.8949  -3.2828  -0.9276   0.4099

          k =-0.0313 0.3482 0.0000 ( 16952 PWs)   bands (ev):

   -96.5667 -60.1413 -60.0784 -59.9647 -31.1723 -26.7106 -17.2662 -13.7367
   -13.6067 -12.9002  -9.2702  -9.1614  -8.8865  -8.7586  -8.5608  -8.3082
    -8.0292  -6.9082  -3.8952  -3.2843  -0.9266   0.4104

          k = 0.4750 0.3011 0.0000 ( 16896 PWs)   bands (ev):

   -96.5663 -60.1406 -60.0884 -59.9646 -31.0795 -26.7265 -17.1920 -13.8752
   -13.6381 -13.5187  -9.2218  -8.9796  -8.8645  -8.6792  -8.3954  -8.3463
    -7.6332  -6.7181  -4.4915  -1.2501  -0.6081   1.3012

          k = 0.4681 0.2967 0.0000 ( 16894 PWs)   bands (ev):

   -96.5663 -60.1406 -60.0884 -59.9646 -31.0796 -26.7265 -17.1918 -13.8750
   -13.6378 -13.5188  -9.2218  -8.9796  -8.8648  -8.6793  -8.3957  -8.3465
    -7.6336  -6.7181  -4.4908  -1.2596  -0.5968   1.2968

          k = 0.4612 0.2923 0.0000 ( 16911 PWs)   bands (ev):

   -96.5663 -60.1406 -60.0884 -59.9646 -31.0797 -26.7265 -17.1914 -13.8744
   -13.6369 -13.5191  -9.2217  -8.9795  -8.8658  -8.6795  -8.3967  -8.3472
    -7.6348  -6.7182  -4.4889  -1.2863  -0.5645   1.2837

          k = 0.4543 0.2880 0.0000 ( 16917 PWs)   bands (ev):

   -96.5663 -60.1406 -60.0884 -59.9646 -31.0800 -26.7265 -17.1906 -13.8734
   -13.6354 -13.5197  -9.2215  -8.9795  -8.8675  -8.6799  -8.3985  -8.3481
    -7.6369  -6.7183  -4.4856  -1.3259  -0.5157   1.2624

          k = 0.4474 0.2836 0.0000 ( 16916 PWs)   bands (ev):

   -96.5663 -60.1406 -60.0883 -59.9646 -31.0805 -26.7264 -17.1895 -13.8721
   -13.6333 -13.5205  -9.2212  -8.9795  -8.8698  -8.6805  -8.4010  -8.3494
    -7.6396  -6.7186  -4.4809  -1.3741  -0.4546   1.2336

          k = 0.4405 0.2792 0.0000 ( 16916 PWs)   bands (ev):

   -96.5663 -60.1406 -60.0883 -59.9646 -31.0810 -26.7263 -17.1880 -13.8704
   -13.6306 -13.5215  -9.2208  -8.9796  -8.8726  -8.6812  -8.4045  -8.3508
    -7.6430  -6.7191  -4.4750  -1.4275  -0.3848   1.1980

          k = 0.4337 0.2749 0.0000 ( 16902 PWs)   bands (ev):

   -96.5663 -60.1406 -60.0882 -59.9646 -31.0817 -26.7262 -17.1863 -13.8684
   -13.6273 -13.5226  -9.2204  -8.9800  -8.8758  -8.6821  -8.4089  -8.3522
    -7.6470  -6.7198  -4.4678  -1.4837  -0.3086   1.1565

          k = 0.4268 0.2705 0.0000 ( 16906 PWs)   bands (ev):

   -96.5663 -60.1407 -60.0882 -59.9646 -31.0825 -26.7261 -17.1842 -13.8660
   -13.6234 -13.5240  -9.2199  -8.9807  -8.8794  -8.6831  -8.4144  -8.3536
    -7.6515  -6.7208  -4.4594  -1.5411  -0.2277   1.1101

          k = 0.4199 0.2662 0.0000 ( 16895 PWs)   bands (ev):

   -96.5663 -60.1407 -60.0881 -59.9646 -31.0834 -26.7260 -17.1818 -13.8633
   -13.6190 -13.5255  -9.2194  -8.9820  -8.8830  -8.6843  -8.4211  -8.3548
    -7.6564  -6.7223  -4.4497  -1.5987  -0.1433   1.0596

          k = 0.4130 0.2618 0.0000 ( 16900 PWs)   bands (ev):

   -96.5663 -60.1407 -60.0880 -59.9646 -31.0844 -26.7259 -17.1792 -13.8603
   -13.6139 -13.5272  -9.2189  -8.9841  -8.8867  -8.6856  -8.4289  -8.3558
    -7.6617  -6.7242  -4.4388  -1.6558  -0.0563   1.0060

          k = 0.4061 0.2574 0.0000 ( 16910 PWs)   bands (ev):

   -96.5663 -60.1407 -60.0879 -59.9646 -31.0855 -26.7257 -17.1762 -13.8570
   -13.6083 -13.5290  -9.2183  -8.9872  -8.8899  -8.6871  -8.4378  -8.3566
    -7.6671  -6.7267  -4.4267  -1.7118   0.0325   0.9502

          k = 0.3992 0.2531 0.0000 ( 16914 PWs)   bands (ev):

   -96.5663 -60.1407 -60.0878 -59.9646 -31.0868 -26.7256 -17.1729 -13.8535
   -13.6022 -13.5308  -9.2178  -8.9916  -8.8926  -8.6888  -8.4478  -8.3572
    -7.6727  -6.7299  -4.4134  -1.7665   0.1222   0.8931

          k = 0.3924 0.2487 0.0000 ( 16921 PWs)   bands (ev):

   -96.5663 -60.1407 -60.0877 -59.9647 -31.0881 -26.7254 -17.1694 -13.8498
   -13.5955 -13.5326  -9.2173  -8.9976  -8.8945  -8.6905  -8.4588  -8.3577
    -7.6784  -6.7338  -4.3991  -1.8195   0.2116   0.8364

          k = 0.3855 0.2443 0.0000 ( 16933 PWs)   bands (ev):

   -96.5663 -60.1407 -60.0876 -59.9647 -31.0896 -26.7252 -17.1655 -13.8458
   -13.5885 -13.5343  -9.2169  -9.0052  -8.8954  -8.6924  -8.4706  -8.3579
    -7.6841  -6.7385  -4.3837  -1.8706   0.2983   0.7824

          k = 0.3786 0.2400 0.0000 ( 16931 PWs)   bands (ev):

   -96.5664 -60.1407 -60.0874 -59.9647 -31.0912 -26.7250 -17.1614 -13.8418
   -13.5812 -13.5357  -9.2165  -9.0145  -8.8954  -8.6945  -8.4833  -8.3580
    -7.6897  -6.7441  -4.3673  -1.9198   0.3768   0.7367

          k = 0.3717 0.2356 0.0000 ( 16933 PWs)   bands (ev):

   -96.5664 -60.1407 -60.0873 -59.9647 -31.0928 -26.7248 -17.1570 -13.8376
   -13.5741 -13.5363  -9.2163  -9.0255  -8.8943  -8.6966  -8.4967  -8.3580
    -7.6952  -6.7505  -4.3499  -1.9670   0.4332   0.7134

          k = 0.3648 0.2313 0.0000 ( 16917 PWs)   bands (ev):

   -96.5664 -60.1407 -60.0871 -59.9647 -31.0946 -26.7246 -17.1523 -13.8333
   -13.5679 -13.5355  -9.2163  -9.0381  -8.8924  -8.6990  -8.5107  -8.3578
    -7.7004  -6.7578  -4.3317  -2.0119   0.4460   0.7340

          k = 0.3579 0.2269 0.0000 ( 16915 PWs)   bands (ev):

   -96.5664 -60.1407 -60.0870 -59.9647 -31.0964 -26.7244 -17.1474 -13.8290
   -13.5635 -13.5322  -9.2166  -9.0521  -8.8898  -8.7014  -8.5252  -8.3575
    -7.7055  -6.7661  -4.3127  -2.0546   0.4172   0.7962

          k = 0.3511 0.2225 0.0000 ( 16914 PWs)   bands (ev):

   -96.5664 -60.1407 -60.0868 -59.9647 -31.0983 -26.7241 -17.1422 -13.8247
   -13.5616 -13.5258  -9.2172  -9.0672  -8.8865  -8.7040  -8.5402  -8.3571
    -7.7104  -6.7752  -4.2929  -2.0951   0.3680   0.8788

          k = 0.3442 0.2182 0.0000 ( 16924 PWs)   bands (ev):

   -96.5664 -60.1407 -60.0867 -59.9647 -31.1003 -26.7239 -17.1368 -13.8204
   -13.5614 -13.5168  -9.2183  -9.0833  -8.8826  -8.7067  -8.5554  -8.3566
    -7.7150  -6.7853  -4.2725  -2.1333   0.3105   0.9688

          k = 0.3373 0.2138 0.0000 ( 16926 PWs)   bands (ev):

   -96.5664 -60.1407 -60.0865 -59.9647 -31.1024 -26.7236 -17.1311 -13.8163
   -13.5623 -13.5062  -9.2202  -9.1002  -8.8783  -8.7096  -8.5710  -8.3561
    -7.7194  -6.7962  -4.2515  -2.1692   0.2494   1.0604

          k = 0.3304 0.2094 0.0000 ( 16928 PWs)   bands (ev):

   -96.5664 -60.1408 -60.0863 -59.9647 -31.1046 -26.7234 -17.1252 -13.8123
   -13.5636 -13.4943  -9.2231  -9.1172  -8.8736  -8.7127  -8.5866  -8.3554
    -7.7234  -6.8080  -4.2301  -2.2028   0.1868   1.1487

          k = 0.3235 0.2051 0.0000 ( 16935 PWs)   bands (ev):

   -96.5664 -60.1408 -60.0861 -59.9647 -31.1068 -26.7231 -17.1191 -13.8085
   -13.5650 -13.4815  -9.2277  -9.1339  -8.8685  -8.7159  -8.6023  -8.3547
    -7.7273  -6.8206  -4.2082  -2.2341   0.1234   1.2250

          k = 0.3166 0.2007 0.0000 ( 16924 PWs)   bands (ev):

   -96.5664 -60.1408 -60.0859 -59.9647 -31.1091 -26.7228 -17.1128 -13.8050
   -13.5663 -13.4680  -9.2347  -9.1493  -8.8632  -8.7195  -8.6180  -8.3539
    -7.7308  -6.8339  -4.1861  -2.2632   0.0600   1.2683

          k = 0.3098 0.1963 0.0000 ( 16932 PWs)   bands (ev):

   -96.5664 -60.1408 -60.0857 -59.9647 -31.1114 -26.7225 -17.1063 -13.8018
   -13.5675 -13.4537  -9.2451  -9.1625  -8.8577  -8.7234  -8.6334  -8.3530
    -7.7341  -6.8479  -4.1637  -2.2900  -0.0033   1.2579

          k = 0.3029 0.1920 0.0000 ( 16933 PWs)   bands (ev):

   -96.5664 -60.1408 -60.0855 -59.9647 -31.1138 -26.7222 -17.0997 -13.7990
   -13.5683 -13.4389  -9.2594  -9.1728  -8.8520  -8.7279  -8.6483  -8.3520
    -7.7371  -6.8625  -4.1412  -2.3146  -0.0661   1.2115

          k = 0.2960 0.1876 0.0000 ( 16933 PWs)   bands (ev):

   -96.5664 -60.1408 -60.0853 -59.9647 -31.1163 -26.7220 -17.0928 -13.7966
   -13.5687 -13.4234  -9.2775  -9.1804  -8.8462  -8.7330  -8.6626  -8.3510
    -7.7399  -6.8777  -4.1187  -2.3371  -0.1283   1.1519

          k = 0.2891 0.1833 0.0000 ( 16938 PWs)   bands (ev):

   -96.5665 -60.1408 -60.0851 -59.9647 -31.1188 -26.7217 -17.0858 -13.7947
   -13.5688 -13.4075  -9.2986  -9.1860  -8.8403  -8.7393  -8.6757  -8.3499
    -7.7425  -6.8933  -4.0962  -2.3574  -0.1897   1.0880

          k = 0.2822 0.1789 0.0000 ( 16934 PWs)   bands (ev):

   -96.5665 -60.1408 -60.0849 -59.9647 -31.1213 -26.7214 -17.0786 -13.7934
   -13.5683 -13.3910  -9.3218  -9.1902  -8.8346  -8.7469  -8.6873  -8.3487
    -7.7447  -6.9092  -4.0739  -2.3757  -0.2503   1.0230

          k = 0.2753 0.1745 0.0000 ( 16915 PWs)   bands (ev):

   -96.5665 -60.1408 -60.0846 -59.9647 -31.1239 -26.7211 -17.0713 -13.7926
   -13.5672 -13.3740  -9.3467  -9.1936  -8.8289  -8.7563  -8.6970  -8.3475
    -7.7468  -6.9255  -4.0518  -2.3920  -0.3099   0.9582

          k = 0.2685 0.1702 0.0000 ( 16909 PWs)   bands (ev):

   -96.5665 -60.1409 -60.0844 -59.9647 -31.1265 -26.7208 -17.0639 -13.7923
   -13.5657 -13.3567  -9.3727  -9.1965  -8.8237  -8.7674  -8.7046  -8.3463
    -7.7486  -6.9420  -4.0299  -2.4064  -0.3686   0.8941

          k = 0.2616 0.1658 0.0000 ( 16911 PWs)   bands (ev):

   -96.5665 -60.1409 -60.0842 -59.9647 -31.1291 -26.7205 -17.0564 -13.7927
   -13.5635 -13.3389  -9.3995  -9.1993  -8.8191  -8.7796  -8.7103  -8.3450
    -7.7502  -6.9586  -4.0085  -2.4189  -0.4261   0.8311

          k = 0.2547 0.1614 0.0000 ( 16908 PWs)   bands (ev):

   -96.5665 -60.1409 -60.0840 -59.9647 -31.1317 -26.7202 -17.0488 -13.7936
   -13.5607 -13.3208  -9.4270  -9.2020  -8.8166  -8.7913  -8.7144  -8.3436
    -7.7515  -6.9753  -3.9874  -2.4297  -0.4826   0.7693

          k = 0.2478 0.1571 0.0000 ( 16904 PWs)   bands (ev):

   -96.5665 -60.1409 -60.0837 -59.9647 -31.1344 -26.7199 -17.0411 -13.7951
   -13.5574 -13.3024  -9.4550  -9.2046  -8.8202  -8.7982  -8.7171  -8.3422
    -7.7526  -6.9920  -3.9668  -2.4388  -0.5378   0.7089

          k = 0.2409 0.1527 0.0000 ( 16901 PWs)   bands (ev):

   -96.5665 -60.1409 -60.0835 -59.9647 -31.1370 -26.7196 -17.0334 -13.7971
   -13.5536 -13.2837  -9.4833  -9.2074  -8.8319  -8.7983  -8.7187  -8.3408
    -7.7534  -7.0087  -3.9468  -2.4463  -0.5919   0.6500

          k = 0.2340 0.1483 0.0000 ( 16897 PWs)   bands (ev):

   -96.5665 -60.1409 -60.0833 -59.9647 -31.1397 -26.7193 -17.0256 -13.7996
   -13.5492 -13.2648  -9.5119  -9.2102  -8.8467  -8.7963  -8.7190  -8.3394
    -7.7540  -7.0252  -3.9273  -2.4523  -0.6446   0.5926

          k = 0.2272 0.1440 0.0000 ( 16899 PWs)   bands (ev):

   -96.5665 -60.1409 -60.0830 -59.9647 -31.1423 -26.7190 -17.0178 -13.8026
   -13.5444 -13.2456  -9.5406  -9.2132  -8.8626  -8.7945  -8.7183  -8.3380
    -7.7543  -7.0415  -3.9084  -2.4569  -0.6961   0.5367

          k = 0.2203 0.1396 0.0000 ( 16905 PWs)   bands (ev):

   -96.5665 -60.1409 -60.0828 -59.9647 -31.1450 -26.7187 -17.0099 -13.8060
   -13.5391 -13.2263  -9.5693  -9.2164  -8.8790  -8.7932  -8.7164  -8.3366
    -7.7544  -7.0576  -3.8902  -2.4601  -0.7461   0.4824

          k = 0.2134 0.1353 0.0000 ( 16907 PWs)   bands (ev):

   -96.5666 -60.1410 -60.0826 -59.9647 -31.1476 -26.7184 -17.0021 -13.8097
   -13.5335 -13.2069  -9.5980  -9.2198  -8.8956  -8.7926  -8.7136  -8.3351
    -7.7542  -7.0734  -3.8727  -2.4622  -0.7948   0.4297

          k = 0.2065 0.1309 0.0000 ( 16899 PWs)   bands (ev):

   -96.5666 -60.1410 -60.0824 -59.9647 -31.1502 -26.7182 -16.9942 -13.8138
   -13.5275 -13.1874  -9.6266  -9.2233  -8.9123  -8.7928  -8.7098  -8.3337
    -7.7538  -7.0889  -3.8558  -2.4632  -0.8421   0.3787

          k = 0.1996 0.1265 0.0000 ( 16890 PWs)   bands (ev):

   -96.5666 -60.1410 -60.0821 -59.9647 -31.1527 -26.7179 -16.9864 -13.8181
   -13.5212 -13.1679  -9.6550  -9.2270  -8.9290  -8.7936  -8.7054  -8.3324
    -7.7531  -7.1040  -3.8397  -2.4632  -0.8879   0.3293

          k = 0.1927 0.1222 0.0000 ( 16898 PWs)   bands (ev):

   -96.5666 -60.1410 -60.0819 -59.9647 -31.1553 -26.7176 -16.9787 -13.8226
   -13.5147 -13.1484  -9.6831  -9.2309  -8.9458  -8.7949  -8.7004  -8.3310
    -7.7521  -7.1188  -3.8243  -2.4623  -0.9322   0.2815

          k = 0.1859 0.1178 0.0000 ( 16910 PWs)   bands (ev):

   -96.5666 -60.1410 -60.0817 -59.9647 -31.1578 -26.7174 -16.9710 -13.8274
   -13.5080 -13.1290  -9.7108  -9.2350  -8.9624  -8.7966  -8.6949  -8.3298
    -7.7509  -7.1331  -3.8096  -2.4607  -0.9750   0.2354

          k = 0.1790 0.1134 0.0000 ( 16916 PWs)   bands (ev):

   -96.5666 -60.1410 -60.0815 -59.9647 -31.1603 -26.7171 -16.9635 -13.8322
   -13.5012 -13.1097  -9.7382  -9.2393  -8.9789  -8.7985  -8.6892  -8.3285
    -7.7494  -7.1470  -3.7956  -2.4584  -1.0163   0.1910

          k = 0.1721 0.1091 0.0000 ( 16918 PWs)   bands (ev):

   -96.5666 -60.1410 -60.0813 -59.9647 -31.1627 -26.7169 -16.9560 -13.8372
   -13.4942 -13.0906  -9.7651  -9.2438  -8.9952  -8.8007  -8.6832  -8.3273
    -7.7476  -7.1605  -3.7822  -2.4555  -1.0559   0.1482

          k = 0.1652 0.1047 0.0000 ( 16926 PWs)   bands (ev):

   -96.5666 -60.1410 -60.0811 -59.9647 -31.1650 -26.7167 -16.9486 -13.8422
   -13.4871 -13.0716  -9.7915  -9.2485  -9.0113  -8.8030  -8.6771  -8.3262
    -7.7456  -7.1735  -3.7696  -2.4522  -1.0940   0.1072

          k = 0.1583 0.1004 0.0000 ( 16920 PWs)   bands (ev):

   -96.5666 -60.1411 -60.0809 -59.9647 -31.1673 -26.7164 -16.9414 -13.8472
   -13.4801 -13.0530  -9.8173  -9.2534  -9.0270  -8.8055  -8.6710  -8.3251
    -7.7433  -7.1861  -3.7577  -2.4485  -1.1305   0.0678

          k = 0.1514 0.0960 0.0000 ( 16918 PWs)   bands (ev):

   -96.5666 -60.1411 -60.0807 -59.9647 -31.1696 -26.7162 -16.9343 -13.8523
   -13.4730 -13.0346  -9.8425  -9.2584  -9.0423  -8.8079  -8.6649  -8.3242
    -7.7409  -7.1982  -3.7464  -2.4445  -1.1653   0.0301

          k = 0.1446 0.0916 0.0000 ( 16918 PWs)   bands (ev):

   -96.5666 -60.1411 -60.0805 -59.9647 -31.1717 -26.7160 -16.9274 -13.8573
   -13.4660 -13.0166  -9.8670  -9.2636  -9.0573  -8.8104  -8.6589  -8.3232
    -7.7382  -7.2098  -3.7358  -2.4404  -1.1985  -0.0059

          k = 0.1377 0.0873 0.0000 ( 16930 PWs)   bands (ev):

   -96.5667 -60.1411 -60.0803 -59.9647 -31.1739 -26.7158 -16.9207 -13.8622
   -13.4590 -12.9990  -9.8908  -9.2690  -9.0717  -8.8129  -8.6529  -8.3224
    -7.7353  -7.2210  -3.7258  -2.4361  -1.2301  -0.0402

          k = 0.1308 0.0829 0.0000 ( 16935 PWs)   bands (ev):

   -96.5667 -60.1411 -60.0801 -59.9647 -31.1759 -26.7156 -16.9142 -13.8671
   -13.4522 -12.9818  -9.9138  -9.2745  -9.0856  -8.8153  -8.6470  -8.3216
    -7.7323  -7.2317  -3.7165  -2.4318  -1.2599  -0.0728

          k = 0.1239 0.0785 0.0000 ( 16935 PWs)   bands (ev):

   -96.5667 -60.1411 -60.0800 -59.9647 -31.1778 -26.7154 -16.9079 -13.8718
   -13.4454 -12.9652  -9.9359  -9.2801  -9.0989  -8.8177  -8.6413  -8.3209
    -7.7291  -7.2419  -3.7077  -2.4276  -1.2881  -0.1037

          k = 0.1170 0.0742 0.0000 ( 16937 PWs)   bands (ev):

   -96.5667 -60.1411 -60.0798 -59.9647 -31.1797 -26.7152 -16.9018 -13.8764
   -13.4389 -12.9491  -9.9571  -9.2859  -9.1116  -8.8199  -8.6358  -8.3203
    -7.7258  -7.2516  -3.6995  -2.4235  -1.3146  -0.1329

          k = 0.1101 0.0698 0.0000 ( 16937 PWs)   bands (ev):

   -96.5667 -60.1411 -60.0796 -59.9647 -31.1815 -26.7151 -16.8960 -13.8809
   -13.4325 -12.9337  -9.9774  -9.2917  -9.1236  -8.8222  -8.6304  -8.3197
    -7.7224  -7.2608  -3.6919  -2.4196  -1.3395  -0.1604

          k = 0.1033 0.0654 0.0000 ( 16933 PWs)   bands (ev):

   -96.5667 -60.1411 -60.0795 -59.9647 -31.1832 -26.7149 -16.8905 -13.8852
   -13.4264 -12.9189  -9.9967  -9.2976  -9.1348  -8.8243  -8.6253  -8.3192
    -7.7189  -7.2696  -3.6848  -2.4158  -1.3626  -0.1862

          k = 0.0964 0.0611 0.0000 ( 16925 PWs)   bands (ev):

   -96.5667 -60.1411 -60.0794 -59.9647 -31.1848 -26.7148 -16.8853 -13.8892
   -13.4205 -12.9048 -10.0150  -9.3035  -9.1453  -8.8263  -8.6205  -8.3187
    -7.7154  -7.2779  -3.6782  -2.4123  -1.3841  -0.2103

          k = 0.0895 0.0567 0.0000 ( 16929 PWs)   bands (ev):

   -96.5667 -60.1411 -60.0792 -59.9647 -31.1863 -26.7146 -16.8803 -13.8931
   -13.4149 -12.8914 -10.0323  -9.3094  -9.1551  -8.8282  -8.6158  -8.3183
    -7.7120  -7.2857  -3.6722  -2.4090  -1.4040  -0.2327

          k = 0.0826 0.0524 0.0000 ( 16929 PWs)   bands (ev):

   -96.5667 -60.1412 -60.0791 -59.9647 -31.1877 -26.7145 -16.8756 -13.8968
   -13.4096 -12.8788 -10.0484  -9.3152  -9.1640  -8.8300  -8.6115  -8.3180
    -7.7085  -7.2929  -3.6667  -2.4060  -1.4222  -0.2534

          k = 0.0757 0.0480 0.0000 ( 16930 PWs)   bands (ev):

   -96.5667 -60.1412 -60.0790 -59.9647 -31.1890 -26.7144 -16.8713 -13.9002
   -13.4046 -12.8671 -10.0634  -9.3208  -9.1722  -8.8316  -8.6075  -8.3177
    -7.7052  -7.2997  -3.6616  -2.4033  -1.4388  -0.2725

          k = 0.0688 0.0436 0.0000 ( 16922 PWs)   bands (ev):

   -96.5667 -60.1412 -60.0789 -59.9647 -31.1902 -26.7143 -16.8673 -13.9034
   -13.4000 -12.8562 -10.0772  -9.3262  -9.1796  -8.8331  -8.6037  -8.3174
    -7.7019  -7.3060  -3.6570  -2.4009  -1.4539  -0.2899

          k = 0.0620 0.0393 0.0000 ( 16930 PWs)   bands (ev):

   -96.5667 -60.1412 -60.0788 -59.9647 -31.1913 -26.7142 -16.8637 -13.9063
   -13.3957 -12.8463 -10.0898  -9.3314  -9.1862  -8.8345  -8.6003  -8.3172
    -7.6989  -7.3117  -3.6529  -2.3987  -1.4673  -0.3056

          k = 0.0551 0.0349 0.0000 ( 16939 PWs)   bands (ev):

   -96.5667 -60.1412 -60.0787 -59.9647 -31.1923 -26.7141 -16.8604 -13.9089
   -13.3919 -12.8373 -10.1011  -9.3362  -9.1920  -8.8358  -8.5972  -8.3171
    -7.6960  -7.3169  -3.6493  -2.3969  -1.4793  -0.3196

          k = 0.0482 0.0305 0.0000 ( 16941 PWs)   bands (ev):

   -96.5667 -60.1412 -60.0786 -59.9647 -31.1931 -26.7140 -16.8575 -13.9112
   -13.3884 -12.8293 -10.1112  -9.3406  -9.1971  -8.8369  -8.5944  -8.3169
    -7.6934  -7.3215  -3.6461  -2.3953  -1.4898  -0.3320

          k = 0.0413 0.0262 0.0000 ( 16925 PWs)   bands (ev):

   -96.5667 -60.1412 -60.0786 -59.9647 -31.1939 -26.7139 -16.8549 -13.9133
   -13.3854 -12.8223 -10.1200  -9.3446  -9.2015  -8.8378  -8.5920  -8.3168
    -7.6910  -7.3255  -3.6433  -2.3940  -1.4988  -0.3427

          k = 0.0344 0.0218 0.0000 ( 16933 PWs)   bands (ev):

   -96.5667 -60.1412 -60.0785 -59.9647 -31.1945 -26.7139 -16.8527 -13.9150
   -13.3828 -12.8163 -10.1275  -9.3481  -9.2052  -8.8387  -8.5899  -8.3167
    -7.6889  -7.3290  -3.6410  -2.3929  -1.5064  -0.3518

          k = 0.0275 0.0175 0.0000 ( 16932 PWs)   bands (ev):

   -96.5667 -60.1412 -60.0785 -59.9647 -31.1951 -26.7138 -16.8510 -13.9164
   -13.3807 -12.8114 -10.1337  -9.3509  -9.2082  -8.8393  -8.5882  -8.3166
    -7.6872  -7.3319  -3.6391  -2.3920  -1.5125  -0.3592

          k = 0.0207 0.0131 0.0000 ( 16922 PWs)   bands (ev):

   -96.5667 -60.1412 -60.0784 -59.9647 -31.1955 -26.7138 -16.8496 -13.9176
   -13.3790 -12.8075 -10.1384  -9.3532  -9.2105  -8.8399  -8.5869  -8.3166
    -7.6858  -7.3341  -3.6376  -2.3913  -1.5173  -0.3649

          k = 0.0138 0.0087 0.0000 ( 16916 PWs)   bands (ev):

   -96.5667 -60.1412 -60.0784 -59.9647 -31.1958 -26.7138 -16.8486 -13.9184
   -13.3778 -12.8048 -10.1419  -9.3549  -9.2121  -8.8402  -8.5860  -8.3165
    -7.6848  -7.3357  -3.6365  -2.3909  -1.5207  -0.3690

          k = 0.0069 0.0044 0.0000 ( 16908 PWs)   bands (ev):

   -96.5667 -60.1412 -60.0784 -59.9647 -31.1959 -26.7137 -16.8480 -13.9188
   -13.3771 -12.8031 -10.1439  -9.3559  -9.2131  -8.8405  -8.5854  -8.3165
    -7.6842  -7.3366  -3.6359  -2.3906  -1.5227  -0.3715

          k = 0.0000 0.0000 0.0000 ( 16899 PWs)   bands (ev):

   -96.5667 -60.1412 -60.0784 -59.9647 -31.1960 -26.7137 -16.8478 -13.9190
   -13.3768 -12.8026 -10.1446  -9.3562  -9.2134  -8.8405  -8.5852  -8.3165
    -7.6840  -7.3370  -3.6357  -2.3905  -1.5234  -0.3723

     Writing output data file aiida.save
 
     init_run     :      5.87s CPU      6.10s WALL (       1 calls)
     electrons    :    210.58s CPU    212.61s WALL (       1 calls)

     Called by init_run:
     wfcinit      :      0.00s CPU      0.02s WALL (       1 calls)
     wfcinit:atom :      0.08s CPU      0.10s WALL (     169 calls)
     wfcinit:wfcr :      3.50s CPU      3.53s WALL (     169 calls)
     potinit      :      4.41s CPU      4.50s WALL (       1 calls)

     Called by electrons:
     c_bands      :    210.58s CPU    212.60s WALL (       1 calls)
     v_of_rho     :      0.04s CPU      0.04s WALL (       1 calls)
     v_h          :      0.00s CPU      0.00s WALL (       1 calls)
     v_xc         :      0.04s CPU      0.04s WALL (       1 calls)
     newd         :      0.12s CPU      0.21s WALL (       1 calls)

     Called by c_bands:
     init_us_2    :      0.07s CPU      0.18s WALL (     169 calls)
     ccgdiagg     :    197.78s CPU    199.19s WALL (     639 calls)
     wfcrot       :     11.85s CPU     11.92s WALL (     639 calls)

     Called by sum_band:

     Called by *cgdiagg:
     h_psi        :    154.72s CPU    156.17s WALL (  137139 calls)
     s_psi        :     16.48s CPU     16.64s WALL (  273639 calls)
     cdiaghg      :      0.50s CPU      0.48s WALL (     639 calls)
     cdiaghg:chol :      0.12s CPU      0.06s WALL (     639 calls)
     cdiaghg:inve :      0.02s CPU      0.01s WALL (     639 calls)
     cdiaghg:para :      0.04s CPU      0.04s WALL (    1278 calls)

     Called by h_psi:
     h_psi:pot    :    153.80s CPU    155.25s WALL (  137139 calls)
     h_psi:calbec :     27.61s CPU     27.85s WALL (  137139 calls)
     vloc_psi     :    113.57s CPU    114.67s WALL (  137139 calls)
     add_vuspsi   :     12.26s CPU     12.38s WALL (  137139 calls)
     h_1psi       :    153.69s CPU    154.90s WALL (  136500 calls)

     General routines
     calbec       :     36.37s CPU     36.92s WALL (  273639 calls)
     fft          :      0.05s CPU      0.05s WALL (      13 calls)
     ffts         :      0.00s CPU      0.00s WALL (       1 calls)
     fftw         :     86.62s CPU     87.87s WALL (  302130 calls)
     interpolate  :      0.01s CPU      0.00s WALL (       1 calls)
     davcio       :      0.24s CPU      0.50s WALL (     169 calls)
 
     Parallel routines
     fft_scatter  :     20.59s CPU     21.05s WALL (  302144 calls)
 
     PWSCF        :  3m36.92s CPU     3m40.62s WALL

 
   This run was terminated on:  22:56:49  29Jun2017            

=------------------------------------------------------------------------------=
   JOB DONE.
=------------------------------------------------------------------------------=
