
     Program PWSCF v.6.1 starts on 30Jun2017 at 16:57:14 

     This program is part of the open-source Quantum ESPRESSO suite
     for quantum simulation of materials; please cite
         "P. Giannozzi et al., J. Phys.:Condens. Matter 21 395502 (2009);
          URL http://www.quantum-espresso.org", 
     in publications or presentations arising from this work. More details at
     http://www.quantum-espresso.org/quote

     Parallel version (MPI & OpenMP), running on      72 processor cores
     Number of MPI processes:                72
     Threads/MPI process:                     1
     K-points division:     npool     =       6
     R & G space division:  proc/nbgrp/npool/nimage =      12
     Reading input from aiida.in

     Current dimensions of program PWSCF are:
     Max number of different atomic species (ntypx) = 10
     Max number of k-points (npk) =  40000
     Max angular momentum in pseudopotentials (lmaxx) =  3

     Subspace diagonalization in iterative solution of the eigenvalue problem:
     one sub-group per band group will be used
     scalapack distributed-memory algorithm (size of sub-group:  2*  2 procs)

 
     Parallelization info
     --------------------
     sticks:   dense  smooth     PW     G-vecs:    dense   smooth      PW
     Min         172      85     25                31911    11267    1779
     Max         173      86     26                31920    11272    1788
     Sum        2065    1025    301               383007   135241   21371
 


     bravais-lattice index     =            0
     lattice parameter (alat)  =       6.4087  a.u.
     unit-cell volume          =    2456.8776 (a.u.)^3
     number of atoms/cell      =            4
     number of atomic types    =            3
     number of electrons       =        36.00
     number of Kohn-Sham states=           18
     kinetic-energy cutoff     =      55.0000  Ry
     charge density cutoff     =     440.0000  Ry
     convergence threshold     =      8.0E-10
     mixing beta               =       0.7000
     number of iterations used =            8  plain     mixing
     Exchange-correlation      = SLA  PW   PBE  PBE ( 1  4  3  4 0 0)

     celldm(1)=   6.408676  celldm(2)=   0.000000  celldm(3)=   0.000000
     celldm(4)=   0.000000  celldm(5)=   0.000000  celldm(6)=   0.000000

     crystal axes: (cart. coord. in units of alat)
               a(1) = (   0.995987   0.089503   0.000000 )  
               a(2) = (   0.134888   1.447985   0.000000 )  
               a(3) = (   0.000000   0.000000   6.526972 )  

     reciprocal axes: (cart. coord. in units 2 pi/alat)
               b(1) = (  1.012506 -0.094321  0.000000 )  
               b(2) = ( -0.062585  0.696445  0.000000 )  
               b(3) = (  0.000000  0.000000  0.153210 )  


     PseudoPot. # 1 for Ag read from file:
     ./pseudo/ag_pbe_v1.4.uspp.F.UPF
     MD5 check sum: d66d668201baa78d5eb5b04ef7011058
     Pseudo is Ultrasoft + core correction, Zval = 19.0
     Generated by new atomic code, or converted to UPF format
     Using radial grid of  887 points,  6 beta functions with: 
                l(1) =   0
                l(2) =   0
                l(3) =   1
                l(4) =   1
                l(5) =   2
                l(6) =   2
     Q(r) pseudized with  6 coefficients,  rinner =    1.300   1.300   1.300
                                                       1.300   1.300

     PseudoPot. # 2 for  N read from file:
     ./pseudo/N.pbe.theos.UPF
     MD5 check sum: 1fde47ee573fe9ed3106b9b4217eb757
     Pseudo is Ultrasoft + core correction, Zval =  5.0
     Generated using "atomic" code by A. Dal Corso  v.5.1
     Using radial grid of 1085 points,  4 beta functions with: 
                l(1) =   0
                l(2) =   0
                l(3) =   1
                l(4) =   1
     Q(r) pseudized with 0 coefficients 


     PseudoPot. # 3 for O  read from file:
     ./pseudo/O_pbe_v1.2.uspp.F.UPF
     MD5 check sum: 734c27235a0248c51dbae37a1fbe46ec
     Pseudo is Ultrasoft + core correction, Zval =  6.0
     Generated by new atomic code, or converted to UPF format
     Using radial grid of  737 points,  5 beta functions with: 
                l(1) =   0
                l(2) =   0
                l(3) =   1
                l(4) =   1
                l(5) =   2
     Q(r) pseudized with  8 coefficients,  rinner =    0.900   0.900   0.900
                                                       0.900   0.900

     atomic species   valence    mass     pseudopotential
        Ag            19.00   107.86800     Ag( 1.00)
        N              5.00    14.00670      N( 1.00)
        O              6.00    15.99940     O ( 1.00)

     No symmetry found


                                    s                        frac. trans.

      isym =  1     identity                                     

 cryst.   s( 1) = (     1          0          0      )
                  (     0          1          0      )
                  (     0          0          1      )

 cart.    s( 1) = (  1.0000000  0.0000000  0.0000000 )
                  ( -0.0000000  1.0000000  0.0000000 )
                  (  0.0000000  0.0000000  1.0000000 )


   Cartesian axes

     site n.     atom                  positions (alat units)
         1           O   tau(   1) = (   0.3477541   0.1162668   3.5996371  )
         2           Ag  tau(   2) = (   0.6086335   0.7881073   3.2026757  )
         3           N   tau(   3) = (   0.6137789   1.4069366   3.3027802  )
         4           O   tau(   4) = (   0.6228736   0.1745304   3.0277932  )

   Crystallographic axes

     site n.     atom                  positions (cryst. coord.)
         1           O   tau(   1) = (  0.3411366  0.0592093  0.5515019  )
         2           Ag  tau(   2) = (  0.5419101  0.5107820  0.4906833  )
         3           N   tau(   3) = (  0.4887515  0.9414404  0.5060203  )
         4           O   tau(   4) = (  0.6142012  0.0825683  0.4638894  )

     number of k points=    42
                       cart. coord. in units 2pi/alat
        k(    1) = (   0.0000000   0.0000000   0.0000000), wk =   0.0250000
        k(    2) = (  -0.0078231   0.0870556   0.0000000), wk =   0.0500000
        k(    3) = (  -0.0156462   0.1741112   0.0000000), wk =   0.0500000
        k(    4) = (  -0.0234693   0.2611668   0.0000000), wk =   0.0500000
        k(    5) = (   0.0312924  -0.3482224   0.0000000), wk =   0.0250000
        k(    6) = (   0.1012506  -0.0094321   0.0000000), wk =   0.0500000
        k(    7) = (   0.0934274   0.0776235   0.0000000), wk =   0.0500000
        k(    8) = (   0.0856043   0.1646791   0.0000000), wk =   0.0500000
        k(    9) = (   0.0777812   0.2517347   0.0000000), wk =   0.0500000
        k(   10) = (   0.1325430  -0.3576545   0.0000000), wk =   0.0500000
        k(   11) = (   0.1247199  -0.2705989   0.0000000), wk =   0.0500000
        k(   12) = (   0.1168968  -0.1835433   0.0000000), wk =   0.0500000
        k(   13) = (   0.1090737  -0.0964877   0.0000000), wk =   0.0500000
        k(   14) = (   0.2025011  -0.0188641   0.0000000), wk =   0.0500000
        k(   15) = (   0.1946780   0.0681915   0.0000000), wk =   0.0500000
        k(   16) = (   0.1868549   0.1552471   0.0000000), wk =   0.0500000
        k(   17) = (   0.1790318   0.2423027   0.0000000), wk =   0.0500000
        k(   18) = (   0.2337936  -0.3670865   0.0000000), wk =   0.0500000
        k(   19) = (   0.2259704  -0.2800309   0.0000000), wk =   0.0500000
        k(   20) = (   0.2181473  -0.1929753   0.0000000), wk =   0.0500000
        k(   21) = (   0.2103242  -0.1059197   0.0000000), wk =   0.0500000
        k(   22) = (   0.3037517  -0.0282962   0.0000000), wk =   0.0500000
        k(   23) = (   0.2959286   0.0587594   0.0000000), wk =   0.0500000
        k(   24) = (   0.2881054   0.1458150   0.0000000), wk =   0.0500000
        k(   25) = (   0.2802823   0.2328706   0.0000000), wk =   0.0500000
        k(   26) = (   0.3350441  -0.3765186   0.0000000), wk =   0.0500000
        k(   27) = (   0.3272210  -0.2894630   0.0000000), wk =   0.0500000
        k(   28) = (   0.3193979  -0.2024074   0.0000000), wk =   0.0500000
        k(   29) = (   0.3115748  -0.1153518   0.0000000), wk =   0.0500000
        k(   30) = (   0.4050022  -0.0377282   0.0000000), wk =   0.0500000
        k(   31) = (   0.3971791   0.0493274   0.0000000), wk =   0.0500000
        k(   32) = (   0.3893560   0.1363830   0.0000000), wk =   0.0500000
        k(   33) = (   0.3815329   0.2234386   0.0000000), wk =   0.0500000
        k(   34) = (   0.4362947  -0.3859506   0.0000000), wk =   0.0500000
        k(   35) = (   0.4284716  -0.2988950   0.0000000), wk =   0.0500000
        k(   36) = (   0.4206484  -0.2118394   0.0000000), wk =   0.0500000
        k(   37) = (   0.4128253  -0.1247838   0.0000000), wk =   0.0500000
        k(   38) = (  -0.5062528   0.0471603   0.0000000), wk =   0.0250000
        k(   39) = (  -0.5140759   0.1342159   0.0000000), wk =   0.0500000
        k(   40) = (  -0.5218990   0.2212715   0.0000000), wk =   0.0500000
        k(   41) = (  -0.5297221   0.3083271   0.0000000), wk =   0.0500000
        k(   42) = (  -0.4749603  -0.3010621   0.0000000), wk =   0.0250000

                       cryst. coord.
        k(    1) = (   0.0000000   0.0000000   0.0000000), wk =   0.0250000
        k(    2) = (  -0.0000000   0.1250000   0.0000000), wk =   0.0500000
        k(    3) = (  -0.0000000   0.2500000   0.0000000), wk =   0.0500000
        k(    4) = (   0.0000000   0.3750000   0.0000000), wk =   0.0500000
        k(    5) = (   0.0000000  -0.5000000   0.0000000), wk =   0.0250000
        k(    6) = (   0.1000000   0.0000000   0.0000000), wk =   0.0500000
        k(    7) = (   0.1000000   0.1250000   0.0000000), wk =   0.0500000
        k(    8) = (   0.1000000   0.2500000   0.0000000), wk =   0.0500000
        k(    9) = (   0.1000000   0.3750000   0.0000000), wk =   0.0500000
        k(   10) = (   0.1000000  -0.5000000   0.0000000), wk =   0.0500000
        k(   11) = (   0.1000000  -0.3750000   0.0000000), wk =   0.0500000
        k(   12) = (   0.1000000  -0.2500000   0.0000000), wk =   0.0500000
        k(   13) = (   0.1000000  -0.1250000   0.0000000), wk =   0.0500000
        k(   14) = (   0.2000000   0.0000000   0.0000000), wk =   0.0500000
        k(   15) = (   0.2000000   0.1250000   0.0000000), wk =   0.0500000
        k(   16) = (   0.2000000   0.2500000   0.0000000), wk =   0.0500000
        k(   17) = (   0.2000000   0.3750000   0.0000000), wk =   0.0500000
        k(   18) = (   0.2000000  -0.5000000   0.0000000), wk =   0.0500000
        k(   19) = (   0.2000000  -0.3750000   0.0000000), wk =   0.0500000
        k(   20) = (   0.2000000  -0.2500000   0.0000000), wk =   0.0500000
        k(   21) = (   0.2000000  -0.1250000   0.0000000), wk =   0.0500000
        k(   22) = (   0.3000000   0.0000000   0.0000000), wk =   0.0500000
        k(   23) = (   0.3000000   0.1250000   0.0000000), wk =   0.0500000
        k(   24) = (   0.3000000   0.2500000   0.0000000), wk =   0.0500000
        k(   25) = (   0.3000000   0.3750000   0.0000000), wk =   0.0500000
        k(   26) = (   0.3000000  -0.5000000   0.0000000), wk =   0.0500000
        k(   27) = (   0.3000000  -0.3750000   0.0000000), wk =   0.0500000
        k(   28) = (   0.3000000  -0.2500000   0.0000000), wk =   0.0500000
        k(   29) = (   0.3000000  -0.1250000   0.0000000), wk =   0.0500000
        k(   30) = (   0.4000000   0.0000000   0.0000000), wk =   0.0500000
        k(   31) = (   0.4000000   0.1250000   0.0000000), wk =   0.0500000
        k(   32) = (   0.4000000   0.2500000   0.0000000), wk =   0.0500000
        k(   33) = (   0.4000000   0.3750000   0.0000000), wk =   0.0500000
        k(   34) = (   0.4000000  -0.5000000   0.0000000), wk =   0.0500000
        k(   35) = (   0.4000000  -0.3750000   0.0000000), wk =   0.0500000
        k(   36) = (   0.4000000  -0.2500000   0.0000000), wk =   0.0500000
        k(   37) = (   0.4000000  -0.1250000   0.0000000), wk =   0.0500000
        k(   38) = (  -0.5000000  -0.0000000   0.0000000), wk =   0.0250000
        k(   39) = (  -0.5000000   0.1250000   0.0000000), wk =   0.0500000
        k(   40) = (  -0.5000000   0.2500000   0.0000000), wk =   0.0500000
        k(   41) = (  -0.5000000   0.3750000   0.0000000), wk =   0.0500000
        k(   42) = (  -0.5000000  -0.5000000   0.0000000), wk =   0.0250000

     Dense  grid:   383007 G-vectors     FFT dimensions: (  45,  64, 288)

     Smooth grid:   135241 G-vectors     FFT dimensions: (  32,  45, 200)

     Estimated max dynamical RAM per process >      25.72MB

     Estimated total allocated dynamical RAM >    1851.50MB

     Initial potential from superposition of free atoms
     Check: negative starting charge=   -0.000530

     starting charge   35.49646, renormalised to   36.00000

     negative rho (up, down):  5.379E-04 0.000E+00
     Starting wfc are   25 randomized atomic wfcs

     total cpu time spent up to now is        2.7 secs

     per-process dynamical memory:     7.7 Mb

     Self-consistent Calculation

     iteration #  1     ecut=    55.00 Ry     beta=0.70
     Davidson diagonalization with overlap
     ethr =  1.00E-02,  avg # of iterations =  2.0

     negative rho (up, down):  7.284E-04 0.000E+00

     total cpu time spent up to now is        3.6 secs

     total energy              =    -379.51274505 Ry
     Harris-Foulkes estimate   =    -380.38700849 Ry
     estimated scf accuracy    <       1.08104634 Ry

     iteration #  2     ecut=    55.00 Ry     beta=0.70
     Davidson diagonalization with overlap
     ethr =  3.00E-03,  avg # of iterations =  4.0

     negative rho (up, down):  8.178E-04 0.000E+00

     total cpu time spent up to now is        4.6 secs

     total energy              =    -379.75989426 Ry
     Harris-Foulkes estimate   =    -380.79960821 Ry
     estimated scf accuracy    <       2.31984317 Ry

     iteration #  3     ecut=    55.00 Ry     beta=0.70
     Davidson diagonalization with overlap
     ethr =  3.00E-03,  avg # of iterations =  3.0

     negative rho (up, down):  9.287E-04 0.000E+00

     total cpu time spent up to now is        5.6 secs

     total energy              =    -380.13290410 Ry
     Harris-Foulkes estimate   =    -380.19379398 Ry
     estimated scf accuracy    <       0.17019779 Ry

     iteration #  4     ecut=    55.00 Ry     beta=0.70
     Davidson diagonalization with overlap
     ethr =  4.73E-04,  avg # of iterations =  4.0

     negative rho (up, down):  9.755E-04 0.000E+00

     total cpu time spent up to now is        6.5 secs

     total energy              =    -380.15415375 Ry
     Harris-Foulkes estimate   =    -380.16595810 Ry
     estimated scf accuracy    <       0.03202885 Ry

     iteration #  5     ecut=    55.00 Ry     beta=0.70
     Davidson diagonalization with overlap
     ethr =  8.90E-05,  avg # of iterations =  4.0

     negative rho (up, down):  9.848E-04 0.000E+00

     total cpu time spent up to now is        7.5 secs

     total energy              =    -380.15837951 Ry
     Harris-Foulkes estimate   =    -380.16095598 Ry
     estimated scf accuracy    <       0.00673355 Ry

     iteration #  6     ecut=    55.00 Ry     beta=0.70
     Davidson diagonalization with overlap
     ethr =  1.87E-05,  avg # of iterations =  3.4

     negative rho (up, down):  9.928E-04 0.000E+00

     total cpu time spent up to now is        8.4 secs

     total energy              =    -380.15941885 Ry
     Harris-Foulkes estimate   =    -380.15969775 Ry
     estimated scf accuracy    <       0.00054751 Ry

     iteration #  7     ecut=    55.00 Ry     beta=0.70
     Davidson diagonalization with overlap
     ethr =  1.52E-06,  avg # of iterations =  4.0

     negative rho (up, down):  9.951E-04 0.000E+00

     total cpu time spent up to now is        9.4 secs

     total energy              =    -380.15955984 Ry
     Harris-Foulkes estimate   =    -380.15964124 Ry
     estimated scf accuracy    <       0.00018972 Ry

     iteration #  8     ecut=    55.00 Ry     beta=0.70
     Davidson diagonalization with overlap
     ethr =  5.27E-07,  avg # of iterations =  3.2

     negative rho (up, down):  9.948E-04 0.000E+00

     total cpu time spent up to now is       10.3 secs

     total energy              =    -380.15958845 Ry
     Harris-Foulkes estimate   =    -380.15959142 Ry
     estimated scf accuracy    <       0.00000614 Ry

     iteration #  9     ecut=    55.00 Ry     beta=0.70
     Davidson diagonalization with overlap
     ethr =  1.71E-08,  avg # of iterations =  3.0

     negative rho (up, down):  9.947E-04 0.000E+00

     total cpu time spent up to now is       11.3 secs

     total energy              =    -380.15959015 Ry
     Harris-Foulkes estimate   =    -380.15959020 Ry
     estimated scf accuracy    <       0.00000015 Ry

     iteration # 10     ecut=    55.00 Ry     beta=0.70
     Davidson diagonalization with overlap
     ethr =  4.28E-10,  avg # of iterations =  3.8

     negative rho (up, down):  9.947E-04 0.000E+00

     total cpu time spent up to now is       12.3 secs

     total energy              =    -380.15959022 Ry
     Harris-Foulkes estimate   =    -380.15959024 Ry
     estimated scf accuracy    <       0.00000004 Ry

     iteration # 11     ecut=    55.00 Ry     beta=0.70
     Davidson diagonalization with overlap
     ethr =  1.07E-10,  avg # of iterations =  2.6

     negative rho (up, down):  9.947E-04 0.000E+00

     total cpu time spent up to now is       13.2 secs

     total energy              =    -380.15959023 Ry
     Harris-Foulkes estimate   =    -380.15959023 Ry
     estimated scf accuracy    <          1.6E-09 Ry

     iteration # 12     ecut=    55.00 Ry     beta=0.70
     Davidson diagonalization with overlap
     ethr =  4.47E-12,  avg # of iterations =  4.0

     negative rho (up, down):  9.947E-04 0.000E+00

     total cpu time spent up to now is       14.2 secs

     End of self-consistent calculation

          k = 0.0000 0.0000 0.0000 ( 16899 PWs)   bands (ev):

   -94.6528 -58.2269 -58.1632 -58.0533 -29.3011 -24.8168 -14.9495 -12.0190
   -11.4847 -10.9063  -8.2368  -7.4493  -7.3016  -6.9323  -6.6733  -6.4132
    -5.7859  -5.4333

     occupation numbers 
     1.0000   1.0000   1.0000   1.0000   1.0000   1.0000   1.0000   1.0000
     1.0000   1.0000   1.0000   1.0000   1.0000   1.0000   1.0000   1.0000
     1.0000   1.0000

          k =-0.0078 0.0871 0.0000 ( 16942 PWs)   bands (ev):

   -94.6528 -58.2269 -58.1632 -58.0533 -29.2977 -24.8163 -15.0151 -11.9877
   -11.5316 -10.9217  -8.0625  -7.4400  -7.2671  -6.9099  -6.6728  -6.4118
    -5.8279  -5.4202

     occupation numbers 
     1.0000   1.0000   1.0000   1.0000   1.0000   1.0000   1.0000   1.0000
     1.0000   1.0000   1.0000   1.0000   1.0000   1.0000   1.0000   1.0000
     1.0000   1.0000

          k =-0.0156 0.1741 0.0000 ( 16964 PWs)   bands (ev):

   -94.6528 -58.2270 -58.1632 -58.0533 -29.2893 -24.8152 -15.1667 -11.9174
   -11.6251 -10.9569  -7.6774  -7.3995  -7.1953  -6.8622  -6.6681  -6.4057
    -5.9312  -5.3425

     occupation numbers 
     1.0000   1.0000   1.0000   1.0000   1.0000   1.0000   1.0000   1.0000
     1.0000   1.0000   1.0000   1.0000   1.0000   1.0000   1.0000   1.0000
     1.0000   1.0000

          k =-0.0235 0.2612 0.0000 ( 16966 PWs)   bands (ev):

   -94.6528 -58.2270 -58.1632 -58.0533 -29.2809 -24.8141 -15.3097 -11.8587
   -11.6925 -10.9901  -7.4092  -7.3021  -7.0934  -6.8374  -6.6552  -6.4003
    -6.0572  -5.1467

     occupation numbers 
     1.0000   1.0000   1.0000   1.0000   1.0000   1.0000   1.0000   1.0000
     1.0000   1.0000   1.0000   1.0000   1.0000   1.0000   1.0000   1.0000
     1.0000   1.0000

          k = 0.0313-0.3482 0.0000 ( 16952 PWs)   bands (ev):

   -94.6528 -58.2270 -58.1632 -58.0533 -29.2774 -24.8136 -15.3667 -11.8423
   -11.7094 -11.0034  -7.3584  -7.2585  -6.9803  -6.8515  -6.6490  -6.4004
    -6.1230  -5.0119

     occupation numbers 
     1.0000   1.0000   1.0000   1.0000   1.0000   1.0000   1.0000   1.0000
     1.0000   1.0000   1.0000   1.0000   1.0000   1.0000   1.0000   1.0000
     1.0000   1.0000

          k = 0.1013-0.0094 0.0000 ( 16922 PWs)   bands (ev):

   -94.6527 -58.2268 -58.1642 -58.0533 -29.2923 -24.8180 -14.9451 -12.0177
   -11.4850 -10.9959  -8.2326  -7.4259  -7.2349  -6.9386  -6.7135  -6.4204
    -5.7460  -5.4062

     occupation numbers 
     1.0000   1.0000   1.0000   1.0000   1.0000   1.0000   1.0000   1.0000
     1.0000   1.0000   1.0000   1.0000   1.0000   1.0000   1.0000   1.0000
     1.0000   1.0000

          k = 0.0934 0.0776 0.0000 ( 16933 PWs)   bands (ev):

   -94.6527 -58.2268 -58.1642 -58.0533 -29.2890 -24.8176 -15.0079 -11.9778
   -11.5449 -11.0112  -8.0488  -7.3898  -7.2293  -6.9093  -6.7060  -6.4134
    -5.8393  -5.3683

     occupation numbers 
     1.0000   1.0000   1.0000   1.0000   1.0000   1.0000   1.0000   1.0000
     1.0000   1.0000   1.0000   1.0000   1.0000   1.0000   1.0000   1.0000
     1.0000   1.0000

          k = 0.0856 0.1647 0.0000 ( 16950 PWs)   bands (ev):

   -94.6527 -58.2269 -58.1642 -58.0533 -29.2808 -24.8165 -15.1575 -11.8990
   -11.6469 -11.0480  -7.6460  -7.3440  -7.1731  -6.8602  -6.6954  -6.4005
    -5.9447  -5.3183

     occupation numbers 
     1.0000   1.0000   1.0000   1.0000   1.0000   1.0000   1.0000   1.0000
     1.0000   1.0000   1.0000   1.0000   1.0000   1.0000   1.0000   1.0000
     1.0000   1.0000

          k = 0.0778 0.2517 0.0000 ( 16958 PWs)   bands (ev):

   -94.6527 -58.2269 -58.1642 -58.0533 -29.2724 -24.8154 -15.3006 -11.8403
   -11.7119 -11.0818  -7.3404  -7.2715  -7.0815  -6.8408  -6.6858  -6.3938
    -6.0403  -5.1598

     occupation numbers 
     1.0000   1.0000   1.0000   1.0000   1.0000   1.0000   1.0000   1.0000
     1.0000   1.0000   1.0000   1.0000   1.0000   1.0000   1.0000   1.0000
     1.0000   1.0000

          k = 0.1325-0.3577 0.0000 ( 16965 PWs)   bands (ev):

   -94.6527 -58.2269 -58.1642 -58.0533 -29.2688 -24.8149 -15.3594 -11.8478
   -11.7010 -11.0949  -7.2799  -7.2393  -6.9887  -6.8537  -6.6787  -6.3924
    -6.1126  -4.9970

     occupation numbers 
     1.0000   1.0000   1.0000   1.0000   1.0000   1.0000   1.0000   1.0000
     1.0000   1.0000   1.0000   1.0000   1.0000   1.0000   1.0000   1.0000
     1.0000   1.0000

          k = 0.1247-0.2706 0.0000 ( 16965 PWs)   bands (ev):

   -94.6527 -58.2269 -58.1642 -58.0533 -29.2721 -24.8154 -15.3049 -11.8792
   -11.6651 -11.0817  -7.3469  -7.2864  -7.1025  -6.8383  -6.6916  -6.3964
    -6.0543  -5.0804

     occupation numbers 
     1.0000   1.0000   1.0000   1.0000   1.0000   1.0000   1.0000   1.0000
     1.0000   1.0000   1.0000   1.0000   1.0000   1.0000   1.0000   1.0000
     1.0000   1.0000

          k = 0.1169-0.1835 0.0000 ( 16989 PWs)   bands (ev):

   -94.6527 -58.2269 -58.1642 -58.0533 -29.2803 -24.8165 -15.1639 -11.9341
   -11.5995 -11.0488  -7.6711  -7.3768  -7.1522  -6.8699  -6.7185  -6.4117
    -5.8925  -5.2817

     occupation numbers 
     1.0000   1.0000   1.0000   1.0000   1.0000   1.0000   1.0000   1.0000
     1.0000   1.0000   1.0000   1.0000   1.0000   1.0000   1.0000   1.0000
     1.0000   1.0000

          k = 0.1091-0.0965 0.0000 ( 16974 PWs)   bands (ev):

   -94.6527 -58.2268 -58.1642 -58.0533 -29.2887 -24.8176 -15.0126 -11.9953
   -11.5170 -11.0132  -8.0634  -7.4256  -7.1961  -6.9217  -6.7197  -6.4209
    -5.7554  -5.4032

     occupation numbers 
     1.0000   1.0000   1.0000   1.0000   1.0000   1.0000   1.0000   1.0000
     1.0000   1.0000   1.0000   1.0000   1.0000   1.0000   1.0000   1.0000
     1.0000   1.0000

          k = 0.2025-0.0189 0.0000 ( 16907 PWs)   bands (ev):

   -94.6526 -58.2266 -58.1667 -58.0533 -29.2691 -24.8215 -14.9335 -12.0127
   -11.5036 -11.1945  -8.2218  -7.4260  -7.0485  -6.9547  -6.8057  -6.4463
    -5.6516  -5.2673

     occupation numbers 
     1.0000   1.0000   1.0000   1.0000   1.0000   1.0000   1.0000   1.0000
     1.0000   1.0000   1.0000   1.0000   1.0000   1.0000   1.0000   1.0000
     1.0000   1.0000

          k = 0.1947 0.0682 0.0000 ( 16906 PWs)   bands (ev):

   -94.6526 -58.2267 -58.1667 -58.0533 -29.2660 -24.8211 -14.9938 -11.9711
   -11.5618 -11.2171  -8.0306  -7.3718  -7.0510  -6.9162  -6.7989  -6.4391
    -5.7730  -5.2312

     occupation numbers 
     1.0000   1.0000   1.0000   1.0000   1.0000   1.0000   1.0000   1.0000
     1.0000   1.0000   1.0000   1.0000   1.0000   1.0000   1.0000   1.0000
     1.0000   1.0000

          k = 0.1869 0.1552 0.0000 ( 16917 PWs)   bands (ev):

   -94.6526 -58.2267 -58.1667 -58.0533 -29.2579 -24.8201 -15.1402 -11.8933
   -11.6563 -11.2629  -7.6052  -7.2975  -7.0307  -6.8727  -6.7721  -6.4160
    -5.9012  -5.2109

     occupation numbers 
     1.0000   1.0000   1.0000   1.0000   1.0000   1.0000   1.0000   1.0000
     1.0000   1.0000   1.0000   1.0000   1.0000   1.0000   1.0000   1.0000
     1.0000   1.0000

          k = 0.1790 0.2423 0.0000 ( 16920 PWs)   bands (ev):

   -94.6526 -58.2268 -58.1667 -58.0533 -29.2495 -24.8190 -15.2813 -11.8429
   -11.7097 -11.2995  -7.2533  -7.1965  -7.0076  -6.8652  -6.7458  -6.3924
    -5.9866  -5.1174

     occupation numbers 
     1.0000   1.0000   1.0000   1.0000   1.0000   1.0000   1.0000   1.0000
     1.0000   1.0000   1.0000   1.0000   1.0000   1.0000   1.0000   1.0000
     1.0000   1.0000

          k = 0.2338-0.3671 0.0000 ( 16945 PWs)   bands (ev):

   -94.6526 -58.2268 -58.1667 -58.0533 -29.2459 -24.8185 -15.3404 -11.8564
   -11.6916 -11.3115  -7.2410  -7.0571  -6.9900  -6.8712  -6.7357  -6.3839
    -6.0695  -4.9551

     occupation numbers 
     1.0000   1.0000   1.0000   1.0000   1.0000   1.0000   1.0000   1.0000
     1.0000   1.0000   1.0000   1.0000   1.0000   1.0000   1.0000   1.0000
     1.0000   1.0000

          k = 0.2260-0.2800 0.0000 ( 16951 PWs)   bands (ev):

   -94.6526 -58.2268 -58.1667 -58.0533 -29.2490 -24.8189 -15.2881 -11.8858
   -11.6567 -11.2961  -7.2999  -7.2184  -7.0212  -6.8509  -6.7588  -6.3989
    -6.0261  -4.9617

     occupation numbers 
     1.0000   1.0000   1.0000   1.0000   1.0000   1.0000   1.0000   1.0000
     1.0000   1.0000   1.0000   1.0000   1.0000   1.0000   1.0000   1.0000
     1.0000   1.0000

          k = 0.2181-0.1930 0.0000 ( 16972 PWs)   bands (ev):

   -94.6526 -58.2267 -58.1667 -58.0533 -29.2572 -24.8200 -15.1501 -11.9361
   -11.5969 -11.2596  -7.6400  -7.3654  -7.0151  -6.8743  -6.8149  -6.4289
    -5.8441  -5.1080

     occupation numbers 
     1.0000   1.0000   1.0000   1.0000   1.0000   1.0000   1.0000   1.0000
     1.0000   1.0000   1.0000   1.0000   1.0000   1.0000   1.0000   1.0000
     1.0000   1.0000

          k = 0.2103-0.1059 0.0000 ( 16966 PWs)   bands (ev):

   -94.6526 -58.2267 -58.1667 -58.0533 -29.2655 -24.8211 -15.0011 -11.9933
   -11.5253 -11.2168  -8.0507  -7.4240  -7.0272  -6.9418  -6.8111  -6.4442
    -5.6731  -5.2401

     occupation numbers 
     1.0000   1.0000   1.0000   1.0000   1.0000   1.0000   1.0000   1.0000
     1.0000   1.0000   1.0000   1.0000   1.0000   1.0000   1.0000   1.0000
     1.0000   1.0000

          k = 0.3038-0.0283 0.0000 ( 16918 PWs)   bands (ev):

   -94.6525 -58.2264 -58.1698 -58.0533 -29.2401 -24.8263 -14.9190 -12.0042
   -11.6097 -11.3290  -8.2089  -7.4712  -7.0095  -6.9166  -6.8137  -6.4781
    -5.5922  -4.9065

     occupation numbers 
     1.0000   1.0000   1.0000   1.0000   1.0000   1.0000   1.0000   1.0000
     1.0000   1.0000   1.0000   1.0000   1.0000   1.0000   1.0000   1.0000
     1.0000   1.0000

          k = 0.2959 0.0588 0.0000 ( 16882 PWs)   bands (ev):

   -94.6525 -58.2264 -58.1698 -58.0533 -29.2370 -24.8259 -14.9780 -11.9729
   -11.6258 -11.3856  -8.0157  -7.4116  -6.9466  -6.9046  -6.8325  -6.4781
    -5.6835  -4.9243

     occupation numbers 
     1.0000   1.0000   1.0000   1.0000   1.0000   1.0000   1.0000   1.0000
     1.0000   1.0000   1.0000   1.0000   1.0000   1.0000   1.0000   1.0000
     1.0000   1.0000

          k = 0.2881 0.1458 0.0000 ( 16891 PWs)   bands (ev):

   -94.6525 -58.2265 -58.1698 -58.0533 -29.2290 -24.8249 -15.1214 -11.9145
   -11.6616 -11.4740  -7.5829  -7.3207  -6.9141  -6.8526  -6.8043  -6.4603
    -5.8106  -4.9764

     occupation numbers 
     1.0000   1.0000   1.0000   1.0000   1.0000   1.0000   1.0000   1.0000
     1.0000   1.0000   1.0000   1.0000   1.0000   1.0000   1.0000   1.0000
     1.0000   1.0000

          k = 0.2803 0.2329 0.0000 ( 16919 PWs)   bands (ev):

   -94.6525 -58.2265 -58.1698 -58.0533 -29.2208 -24.8238 -15.2597 -11.8808
   -11.6885 -11.5228  -7.2724  -7.1559  -6.9388  -6.8172  -6.7351  -6.4201
    -5.8815  -5.0051

     occupation numbers 
     1.0000   1.0000   1.0000   1.0000   1.0000   1.0000   1.0000   1.0000
     1.0000   1.0000   1.0000   1.0000   1.0000   1.0000   1.0000   1.0000
     1.0000   1.0000

          k = 0.3350-0.3765 0.0000 ( 16950 PWs)   bands (ev):

   -94.6525 -58.2266 -58.1698 -58.0533 -29.2172 -24.8234 -15.3175 -11.8716
   -11.7126 -11.5158  -7.2712  -7.0049  -6.9297  -6.8102  -6.7144  -6.3988
    -5.9650  -4.8970

     occupation numbers 
     1.0000   1.0000   1.0000   1.0000   1.0000   1.0000   1.0000   1.0000
     1.0000   1.0000   1.0000   1.0000   1.0000   1.0000   1.0000   1.0000
     1.0000   1.0000

          k = 0.3272-0.2895 0.0000 ( 16904 PWs)   bands (ev):

   -94.6525 -58.2265 -58.1698 -58.0533 -29.2203 -24.8238 -15.2661 -11.8720
   -11.7257 -11.4800  -7.3476  -7.1595  -6.9170  -6.8308  -6.7477  -6.4246
    -5.9631  -4.8047

     occupation numbers 
     1.0000   1.0000   1.0000   1.0000   1.0000   1.0000   1.0000   1.0000
     1.0000   1.0000   1.0000   1.0000   1.0000   1.0000   1.0000   1.0000
     1.0000   1.0000

          k = 0.3194-0.2024 0.0000 ( 16946 PWs)   bands (ev):

   -94.6525 -58.2265 -58.1698 -58.0533 -29.2283 -24.8248 -15.1308 -11.9155
   -11.6903 -11.4231  -7.6173  -7.3860  -6.9489  -6.8729  -6.7953  -6.4649
    -5.7967  -4.8211

     occupation numbers 
     1.0000   1.0000   1.0000   1.0000   1.0000   1.0000   1.0000   1.0000
     1.0000   1.0000   1.0000   1.0000   1.0000   1.0000   1.0000   1.0000
     1.0000   1.0000

          k = 0.3116-0.1154 0.0000 ( 16935 PWs)   bands (ev):

   -94.6525 -58.2265 -58.1698 -58.0533 -29.2365 -24.8258 -14.9850 -11.9779
   -11.6349 -11.3557  -8.0328  -7.4635  -7.0086  -6.8971  -6.8069  -6.4768
    -5.6345  -4.8751

     occupation numbers 
     1.0000   1.0000   1.0000   1.0000   1.0000   1.0000   1.0000   1.0000
     1.0000   1.0000   1.0000   1.0000   1.0000   1.0000   1.0000   1.0000
     1.0000   1.0000

          k = 0.4050-0.0377 0.0000 ( 16873 PWs)   bands (ev):

   -94.6524 -58.2263 -58.1723 -58.0532 -29.2163 -24.8305 -14.9071 -11.9994
   -11.7537 -11.3590  -8.1991  -7.5249  -7.0936  -6.9100  -6.7311  -6.4806
    -5.5727  -4.4504

     occupation numbers 
     1.0000   1.0000   1.0000   1.0000   1.0000   1.0000   1.0000   1.0000
     1.0000   1.0000   1.0000   1.0000   1.0000   1.0000   1.0000   1.0000
     1.0000   1.0000

          k = 0.3972 0.0493 0.0000 ( 16889 PWs)   bands (ev):

   -94.6524 -58.2263 -58.1723 -58.0532 -29.2132 -24.8301 -14.9665 -11.9850
   -11.7410 -11.4266  -8.0084  -7.4696  -7.0396  -6.8995  -6.7345  -6.4869
    -5.6359  -4.5022

     occupation numbers 
     1.0000   1.0000   1.0000   1.0000   1.0000   1.0000   1.0000   1.0000
     1.0000   1.0000   1.0000   1.0000   1.0000   1.0000   1.0000   1.0000
     1.0000   1.0000

          k = 0.3894 0.1364 0.0000 ( 16885 PWs)   bands (ev):

   -94.6524 -58.2263 -58.1723 -58.0532 -29.2053 -24.8292 -15.1080 -11.9573
   -11.7149 -11.5486  -7.5855  -7.3638  -6.9710  -6.8625  -6.6851  -6.4912
    -5.7485  -4.6347

     occupation numbers 
     1.0000   1.0000   1.0000   1.0000   1.0000   1.0000   1.0000   1.0000
     1.0000   1.0000   1.0000   1.0000   1.0000   1.0000   1.0000   1.0000
     1.0000   1.0000

          k = 0.3815 0.2234 0.0000 ( 16921 PWs)   bands (ev):

   -94.6524 -58.2264 -58.1723 -58.0532 -29.1972 -24.8282 -15.2436 -11.9477
   -11.6794 -11.6397  -7.3259  -7.1516  -6.9848  -6.7909  -6.5845  -6.4627
    -5.7892  -4.8152

     occupation numbers 
     1.0000   1.0000   1.0000   1.0000   1.0000   1.0000   1.0000   1.0000
     1.0000   1.0000   1.0000   1.0000   1.0000   1.0000   1.0000   1.0000
     1.0000   1.0000

          k = 0.4363-0.3860 0.0000 ( 16909 PWs)   bands (ev):

   -94.6524 -58.2264 -58.1723 -58.0532 -29.1938 -24.8277 -15.2993 -11.9339
   -11.7437 -11.6006  -7.3049  -7.0434  -6.9557  -6.7767  -6.5487  -6.4266
    -5.8094  -4.8429

     occupation numbers 
     1.0000   1.0000   1.0000   1.0000   1.0000   1.0000   1.0000   1.0000
     1.0000   1.0000   1.0000   1.0000   1.0000   1.0000   1.0000   1.0000
     1.0000   1.0000

          k = 0.4285-0.2989 0.0000 ( 16891 PWs)   bands (ev):

   -94.6524 -58.2264 -58.1723 -58.0532 -29.1969 -24.8281 -15.2474 -11.8974
   -11.8078 -11.5523  -7.3818  -7.1492  -6.9618  -6.7997  -6.5980  -6.4589
    -5.8690  -4.6661

     occupation numbers 
     1.0000   1.0000   1.0000   1.0000   1.0000   1.0000   1.0000   1.0000
     1.0000   1.0000   1.0000   1.0000   1.0000   1.0000   1.0000   1.0000
     1.0000   1.0000

          k = 0.4206-0.2118 0.0000 ( 16902 PWs)   bands (ev):

   -94.6524 -58.2263 -58.1723 -58.0532 -29.2048 -24.8291 -15.1136 -11.8892
   -11.8364 -11.4813  -7.6132  -7.3944  -7.0067  -6.8633  -6.6807  -6.4924
    -5.7581  -4.5211

     occupation numbers 
     1.0000   1.0000   1.0000   1.0000   1.0000   1.0000   1.0000   1.0000
     1.0000   1.0000   1.0000   1.0000   1.0000   1.0000   1.0000   1.0000
     1.0000   1.0000

          k = 0.4128-0.1248 0.0000 ( 16880 PWs)   bands (ev):

   -94.6524 -58.2263 -58.1723 -58.0532 -29.2128 -24.8301 -14.9707 -11.9626
   -11.7848 -11.3945  -8.0182  -7.5021  -7.0801  -6.8907  -6.7207  -6.4867
    -5.6212  -4.4568

     occupation numbers 
     1.0000   1.0000   1.0000   1.0000   1.0000   1.0000   1.0000   1.0000
     1.0000   1.0000   1.0000   1.0000   1.0000   1.0000   1.0000   1.0000
     1.0000   1.0000

          k =-0.5063 0.0472 0.0000 ( 16812 PWs)   bands (ev):

   -94.6523 -58.2262 -58.1732 -58.0532 -29.2071 -24.8322 -14.9025 -12.0016
   -11.8079 -11.3636  -8.1955  -7.5477  -7.1296  -6.9078  -6.7127  -6.4699
    -5.5684  -4.2294

     occupation numbers 
     1.0000   1.0000   1.0000   1.0000   1.0000   1.0000   1.0000   1.0000
     1.0000   1.0000   1.0000   1.0000   1.0000   1.0000   1.0000   1.0000
     1.0000   1.0000

          k =-0.5141 0.1342 0.0000 ( 16871 PWs)   bands (ev):

   -94.6523 -58.2262 -58.1733 -58.0532 -29.2039 -24.8318 -14.9636 -11.9816
   -11.8107 -11.4167  -8.0097  -7.5059  -7.0945  -6.8920  -6.7081  -6.4782
    -5.6206  -4.2744

     occupation numbers 
     1.0000   1.0000   1.0000   1.0000   1.0000   1.0000   1.0000   1.0000
     1.0000   1.0000   1.0000   1.0000   1.0000   1.0000   1.0000   1.0000
     1.0000   1.0000

          k =-0.5219 0.2213 0.0000 ( 16885 PWs)   bands (ev):

   -94.6523 -58.2263 -58.1733 -58.0532 -29.1960 -24.8308 -15.1050 -11.9602
   -11.7944 -11.5225  -7.6034  -7.3888  -7.0102  -6.8637  -6.6537  -6.4915
    -5.7369  -4.4188

     occupation numbers 
     1.0000   1.0000   1.0000   1.0000   1.0000   1.0000   1.0000   1.0000
     1.0000   1.0000   1.0000   1.0000   1.0000   1.0000   1.0000   1.0000
     1.0000   1.0000

          k =-0.5297 0.3083 0.0000 ( 16897 PWs)   bands (ev):

   -94.6523 -58.2263 -58.1732 -58.0532 -29.1880 -24.8299 -15.2389 -11.9702
   -11.7561 -11.6003  -7.3721  -7.1571  -6.9827  -6.7922  -6.5295  -6.4802
    -5.7891  -4.6556

     occupation numbers 
     1.0000   1.0000   1.0000   1.0000   1.0000   1.0000   1.0000   1.0000
     1.0000   1.0000   1.0000   1.0000   1.0000   1.0000   1.0000   1.0000
     1.0000   1.0000

          k =-0.4750-0.3011 0.0000 ( 16896 PWs)   bands (ev):

   -94.6523 -58.2263 -58.1732 -58.0532 -29.1847 -24.8294 -15.2925 -11.9789
   -11.7432 -11.6209  -7.3174  -7.0704  -6.9562  -6.7718  -6.4874  -6.4407
    -5.7259  -4.8193

     occupation numbers 
     1.0000   1.0000   1.0000   1.0000   1.0000   1.0000   1.0000   1.0000
     1.0000   1.0000   1.0000   1.0000   1.0000   1.0000   1.0000   1.0000
     1.0000   1.0000

     highest occupied level (ev):    -4.2294

!    total energy              =    -380.15959023 Ry
     Harris-Foulkes estimate   =    -380.15959023 Ry
     estimated scf accuracy    <          6.1E-10 Ry

     The total energy is the sum of the following terms:

     one-electron contribution =   -1749.22214698 Ry
     hartree contribution      =     873.97656786 Ry
     xc contribution           =     -48.67810941 Ry
     ewald contribution        =     543.76409829 Ry

     convergence has been achieved in  12 iterations

     negative rho (up, down):  9.947E-04 0.000E+00

     Forces acting on atoms (cartesian axes, Ry/au):

     atom    1 type  3   force =    -0.00006606    0.00050800    0.00070619
     atom    2 type  1   force =    -0.00001562    0.00013049   -0.00026725
     atom    3 type  2   force =     0.00024186   -0.00007483   -0.00114195
     atom    4 type  3   force =    -0.00016018   -0.00056366    0.00070301
     The non-local contrib.  to forces
     atom    1 type  3   force =     0.87147140   -0.85851962   -1.99609412
     atom    2 type  1   force =     0.00913692   -0.02693979   -0.00053521
     atom    3 type  2   force =     0.00866548    1.64683172    0.19391565
     atom    4 type  3   force =    -0.81660179   -0.56556403    1.69248220
     The ionic contribution  to forces
     atom    1 type  3   force =    -4.75138223    3.10651979   32.84566900
     atom    2 type  1   force =     0.33374456    2.11609629  -10.05176150
     atom    3 type  2   force =     0.11370213   -4.65888760    2.37175517
     atom    4 type  3   force =     4.30393554   -0.56372848  -25.16566268
     The local contribution  to forces
     atom    1 type  3   force =     3.88355310   -2.25065048  -30.85725290
     atom    2 type  1   force =    -0.34283659   -2.08903089   10.05196907
     atom    3 type  2   force =    -0.12155132    3.02535382   -2.56628992
     atom    4 type  3   force =    -3.49146227    1.12733254   23.48217683
     The core correction contribution to forces
     atom    1 type  3   force =    -0.00371992    0.00317048    0.00842062
     atom    2 type  1   force =    -0.00005756   -0.00003272    0.00005490
     atom    3 type  2   force =    -0.00058500   -0.01335359   -0.00049900
     atom    4 type  3   force =     0.00397029    0.00140799   -0.00829459
     The Hubbard contrib.    to forces
     atom    1 type  3   force =     0.00000000    0.00000000    0.00000000
     atom    2 type  1   force =     0.00000000    0.00000000    0.00000000
     atom    3 type  2   force =     0.00000000    0.00000000    0.00000000
     atom    4 type  3   force =     0.00000000    0.00000000    0.00000000
     The SCF correction term to forces
     atom    1 type  3   force =     0.00000973   -0.00001012   -0.00003453
     atom    2 type  1   force =    -0.00000480    0.00003963    0.00000736
     atom    3 type  2   force =     0.00000872   -0.00001714   -0.00002197
     atom    4 type  3   force =    -0.00000381   -0.00000964    0.00000313

     Total force =     0.001748     Total SCF correction =     0.000063


     Computing stress (Cartesian axis) and pressure


     negative rho (up, down):  9.947E-04 0.000E+00
          total   stress  (Ry/bohr**3)                   (kbar)     P=   -0.05
   0.00000199  -0.00000057   0.00000030          0.29     -0.08      0.04
  -0.00000057   0.00000108   0.00000071         -0.08      0.16      0.10
   0.00000030   0.00000071  -0.00000415          0.04      0.10     -0.61

     kinetic stress (kbar)   4347.31     -3.32     56.62
                               -3.32   4299.33    -12.74
                               56.62    -12.74   4265.54

     local   stress (kbar) -89574.29   -548.66   1399.22
                             -548.66 -96092.50   -509.08
                             1399.22   -509.08  88717.03

     nonloc. stress (kbar)    624.01      0.32     11.05
                                0.32    671.27      8.47
                               11.05      8.47    609.64

     hartree stress (kbar)  45957.18    220.54   -455.52
                              220.54  48452.19    181.08
                             -455.52    181.08 -42080.20

     exc-cor stress (kbar)   -801.59      0.43     -3.24
                                0.43   -795.55      0.49
                               -3.24      0.49   -797.32

     corecor stress (kbar)   -119.58      0.00      0.10
                                0.00   -120.61     -0.17
                                0.10     -0.17   -119.78

     ewald   stress (kbar)  39567.26    330.59  -1008.19
                              330.59  43586.02    332.06
                            -1008.19    332.06 -50595.52

     hubbard stress (kbar)      0.00      0.00      0.00
                                0.00      0.00      0.00
                                0.00      0.00      0.00

     london  stress (kbar)      0.00      0.00      0.00
                                0.00      0.00      0.00
                                0.00      0.00      0.00

     XDM     stress (kbar)      0.00      0.00      0.00
                                0.00      0.00      0.00
                                0.00      0.00      0.00

     dft-nl  stress (kbar)      0.00      0.00      0.00
                                0.00      0.00      0.00
                                0.00      0.00      0.00

     TS-vdW  stress (kbar)      0.00      0.00      0.00
                                0.00      0.00      0.00
                                0.00      0.00      0.00



     Writing output data file aiida.save
 
     init_run     :      2.16s CPU      2.28s WALL (       1 calls)
     electrons    :     10.23s CPU     17.02s WALL (       1 calls)
     forces       :      1.52s CPU      1.59s WALL (       1 calls)
     stress       :      4.12s CPU      4.34s WALL (       1 calls)

     Called by init_run:
     wfcinit      :      0.15s CPU      0.16s WALL (       1 calls)
     wfcinit:atom :      0.00s CPU      0.00s WALL (       7 calls)
     wfcinit:wfcr :      0.13s CPU      0.14s WALL (       7 calls)
     potinit      :      0.54s CPU      0.54s WALL (       1 calls)

     Called by electrons:
     c_bands      :      4.96s CPU      4.99s WALL (      12 calls)
     sum_band     :      2.49s CPU      3.39s WALL (      12 calls)
     v_of_rho     :      0.48s CPU      0.50s WALL (      13 calls)
     v_h          :      0.02s CPU      0.03s WALL (      13 calls)
     v_xc         :      0.54s CPU      0.54s WALL (      15 calls)
     newd         :      1.72s CPU      2.72s WALL (      13 calls)
     mix_rho      :      0.10s CPU      0.09s WALL (      12 calls)

     Called by c_bands:
     init_us_2    :      0.18s CPU      0.17s WALL (     189 calls)
     cegterg      :      4.36s CPU      4.36s WALL (      84 calls)

     Called by sum_band:
     sum_band:bec :      0.00s CPU      0.00s WALL (      84 calls)
     addusdens    :      1.64s CPU      2.54s WALL (      12 calls)

     Called by *egterg:
     h_psi        :      3.12s CPU      3.16s WALL (     384 calls)
     s_psi        :      0.12s CPU      0.11s WALL (     384 calls)
     g_psi        :      0.04s CPU      0.03s WALL (     293 calls)
     cdiaghg      :      0.46s CPU      0.48s WALL (     377 calls)
     cegterg:over :      0.18s CPU      0.15s WALL (     293 calls)
     cegterg:upda :      0.20s CPU      0.22s WALL (     293 calls)
     cegterg:last :      0.04s CPU      0.04s WALL (      84 calls)
     cdiaghg:chol :      0.03s CPU      0.04s WALL (     377 calls)
     cdiaghg:inve :      0.01s CPU      0.01s WALL (     377 calls)
     cdiaghg:para :      0.04s CPU      0.04s WALL (     754 calls)

     Called by h_psi:
     h_psi:pot    :      3.10s CPU      3.14s WALL (     384 calls)
     h_psi:calbec :      0.20s CPU      0.21s WALL (     384 calls)
     vloc_psi     :      2.80s CPU      2.81s WALL (     384 calls)
     add_vuspsi   :      0.10s CPU      0.12s WALL (     384 calls)

     General routines
     calbec       :      0.29s CPU      0.27s WALL (     503 calls)
     fft          :      0.40s CPU      0.45s WALL (     229 calls)
     ffts         :      0.01s CPU      0.02s WALL (      25 calls)
     fftw         :      2.76s CPU      2.77s WALL (   10648 calls)
     interpolate  :      0.05s CPU      0.06s WALL (      25 calls)
     davcio       :      0.00s CPU      0.01s WALL (       7 calls)
 
     Parallel routines
     fft_scatter  :      0.91s CPU      0.89s WALL (   10902 calls)
 
     PWSCF        :    18.94s CPU        31.58s WALL

 
   This run was terminated on:  16:57:45  30Jun2017            

=------------------------------------------------------------------------------=
   JOB DONE.
=------------------------------------------------------------------------------=
