
     Program PHONON v.7.1 starts on  2May2024 at 16:24:46 

     This program is part of the open-source Quantum ESPRESSO suite
     for quantum simulation of materials; please cite
         "P. Giannozzi et al., J. Phys.:Condens. Matter 21 395502 (2009);
         "P. Giannozzi et al., J. Phys.:Condens. Matter 29 465901 (2017);
         "P. Giannozzi et al., J. Chem. Phys. 152 154105 (2020);
          URL http://www.quantum-espresso.org", 
     in publications or presentations arising from this work. More details at
     http://www.quantum-espresso.org/quote

     Parallel version (MPI & OpenMP), running on       6 processor cores
     Number of MPI processes:                 6
     Threads/MPI process:                     1

     MPI processes distributed on     1 nodes
     R & G space division:  proc/nbgrp/npool/nimage =       6
     222325 MiB available memory on the printing compute node when the environment starts

     Reading input from graphite.ph.in

     Reading xml data from directory:

     /home/bonacc_m/Documents/phonons/example16/TMP_graphite/graphite.save/
     file C.pbe-rrkjus.UPF: wavefunction(s)  2S 2P renormalized

     IMPORTANT: XC functional enforced from input :
     Exchange-correlation= PBE
                           (   1   4   3   4   0   0   0)
     Any further DFT definition will be discarded
     Please, verify this is what you really want


     Parallelization info
     --------------------
     sticks:   dense  smooth     PW     G-vecs:    dense   smooth      PW
     Min          43      30     10                 1516      823     184
     Max          45      32     11                 1521      825     193
     Sum         265     187     61                 9111     4943    1117

     Using Slab Decomposition

     Reading collected, re-writing distributed wavefunctions


     Dynamical matrices for ( 4, 4, 2)  uniform grid of q-points
     (   8 q-points):
       N         xq(1)         xq(2)         xq(3) 
       1   0.000000000   0.000000000   0.000000000
       2   0.000000000   0.000000000  -0.193607630
       3   0.000000000   0.288675135   0.000000000
       4   0.000000000   0.288675135  -0.193607630
       5   0.000000000  -0.577350269   0.000000000
       6   0.000000000  -0.577350269  -0.193607630
       7   0.250000000   0.433012702   0.000000000
       8   0.250000000   0.433012702  -0.193607630

     Calculation of q =    0.0000000   0.0000000   0.0000000

     Graphite                                                                   

     bravais-lattice index     =            4
     lattice parameter (alat)  =       4.6463  a.u.
     unit-cell volume          =     224.3370 (a.u.)^3
     number of atoms/cell      =            4
     number of atomic types    =            1
     kinetic-energy cut-off    =      30.0000  Ry
     charge density cut-off    =     180.0000  Ry
     convergence threshold     =      1.0E-16
     beta                      =       0.7000
     number of iterations used =            4
     Exchange-correlation= PBE
                           (   1   4   3   4   0   0   0)


     celldm(1)=    4.64630  celldm(2)=    0.00000  celldm(3)=    2.58254
     celldm(4)=    0.00000  celldm(5)=    0.00000  celldm(6)=    0.00000

     crystal axes: (cart. coord. in units of alat)
               a(1) = (  1.0000  0.0000  0.0000 )  
               a(2) = ( -0.5000  0.8660  0.0000 )  
               a(3) = (  0.0000  0.0000  2.5825 )  

     reciprocal axes: (cart. coord. in units 2 pi/alat)
               b(1) = (  1.0000  0.5774 -0.0000 )  
               b(2) = (  0.0000  1.1547  0.0000 )  
               b(3) = (  0.0000 -0.0000  0.3872 )  


     Atoms inside the unit cell: 

     Cartesian axes

     site n.  atom      mass           positions (alat units)
        1     C   12.0000   tau(    1) = (    0.00000    0.00000    0.00000  )
        2     C   12.0000   tau(    2) = (   -0.00000    0.57735    0.00000  )
        3     C   12.0000   tau(    3) = (    0.00000    0.00000    1.29127  )
        4     C   12.0000   tau(    4) = (    0.50000    0.28868    1.29127  )

     Computing dynamical matrix for 
                    q = (   0.0000000   0.0000000   0.0000000 )

     25 Sym.Ops. (with q -> -q+G )


     G cutoff =   98.4301  (   1521 G-vectors)     FFT grid: ( 20, 20, 54)
     G cutoff =   65.6201  (    825 G-vectors)  smooth grid: ( 18, 18, 48)
     number of k points=    40

     PseudoPot. # 1 for C  read from file:
     /home/bonacc_m/Codes/q-e/pseudo/C.pbe-rrkjus.UPF
     MD5 check sum: c9ac5a99bc85b198593446162950cd17
     Pseudo is Ultrasoft, Zval =  4.0
     Generated by new atomic code, or converted to UPF format
     Using radial grid of  627 points,  4 beta functions with: 
                l(1) =   0
                l(2) =   0
                l(3) =   1
                l(4) =   1
     Q(r) pseudized with 0 coefficients 


     Mode symmetry, D_6h(6/mmm) point group:


     Electric field:
     Dielectric constant
     Born effective charges in two ways 


     Atomic displacements:
     There are    8 irreducible representations

     Representation     1      1 modes -  To be done

     Representation     2      1 modes -  To be done

     Representation     3      2 modes -  To be done

     Representation     4      2 modes -  To be done

     Representation     5      1 modes -  To be done

     Representation     6      1 modes -  To be done

     Representation     7      2 modes -  To be done

     Representation     8      2 modes -  To be done



     Alpha used in Ewald sum =   1.8000
     PHONON       :      0.50s CPU      0.53s WALL


     Electric Fields Calculation

      iter #   1 total cpu time :     3.8 secs   av.it.:   5.1
      thresh= 1.000E-02 alpha_mix =  0.700 |ddv_scf|^2 =  1.362E-06

      iter #   2 total cpu time :     5.1 secs   av.it.:   7.9
      thresh= 1.167E-04 alpha_mix =  0.700 |ddv_scf|^2 =  1.006E-07

      iter #   3 total cpu time :     6.2 secs   av.it.:   7.2
      thresh= 3.172E-05 alpha_mix =  0.700 |ddv_scf|^2 =  5.143E-09

      iter #   4 total cpu time :     7.4 secs   av.it.:   7.5
      thresh= 7.172E-06 alpha_mix =  0.700 |ddv_scf|^2 =  3.484E-12

      iter #   5 total cpu time :     8.6 secs   av.it.:   8.4
      thresh= 1.867E-07 alpha_mix =  0.700 |ddv_scf|^2 =  1.136E-13

      iter #   6 total cpu time :     9.8 secs   av.it.:   8.0
      thresh= 3.371E-08 alpha_mix =  0.700 |ddv_scf|^2 =  2.983E-16

      iter #   7 total cpu time :    10.9 secs   av.it.:   8.0
      thresh= 1.727E-09 alpha_mix =  0.700 |ddv_scf|^2 =  2.193E-17

     End of electric fields calculation

          Dielectric constant in cartesian axis 

          (      74.558105274      -0.000000000       0.000000000 )
          (      -0.000000000      74.558105274       0.000000000 )
          (       0.000000000       0.000000000       3.597784260 )

          Effective charges (d Force / dE) in cartesian axis without acoustic sum rule applied (asr)

           atom      1   C  Mean Z*:        0.56287
      Ex  (        0.79194        0.00000       -0.00000 )
      Ey  (        0.00000        0.79194       -0.00000 )
      Ez  (        0.00000       -0.00000        0.10475 )
           atom      2   C  Mean Z*:       -0.57329
      Ex  (       -0.80966        0.00000       -0.00000 )
      Ey  (       -0.00000       -0.80966        0.00000 )
      Ez  (        0.00000       -0.00000       -0.10055 )
           atom      3   C  Mean Z*:        0.56287
      Ex  (        0.79194        0.00000        0.00000 )
      Ey  (        0.00000        0.79194        0.00000 )
      Ez  (        0.00000        0.00000        0.10475 )
           atom      4   C  Mean Z*:       -0.57329
      Ex  (       -0.80966        0.00000        0.00000 )
      Ey  (       -0.00000       -0.80966       -0.00000 )
      Ez  (        0.00000        0.00000       -0.10055 )

          Effective charges Sum: Mean:       -0.02083
             -0.03546       -0.00000        0.00000
              0.00000       -0.03546       -0.00000
             -0.00000        0.00000        0.00841

          Effective charges (d Force / dE) in cartesian axis with asr applied: 
           atom      1   C  Mean Z*:        0.56808
      E*x (        0.80080       -0.00000        0.00000 )
      E*y (        0.00000        0.80080       -0.00000 )
      E*z (       -0.00000       -0.00000        0.10265 )
           atom      2   C  Mean Z*:       -0.56808
      E*x (       -0.80080        0.00000       -0.00000 )
      E*y (       -0.00000       -0.80080        0.00000 )
      E*z (        0.00000       -0.00000       -0.10265 )
           atom      3   C  Mean Z*:        0.56808
      E*x (        0.80080       -0.00000        0.00000 )
      E*y (        0.00000        0.80080       -0.00000 )
      E*z (       -0.00000        0.00000        0.10265 )
           atom      4   C  Mean Z*:       -0.56808
      E*x (       -0.80080       -0.00000        0.00000 )
      E*y (       -0.00000       -0.80080       -0.00000 )
      E*z (        0.00000        0.00000       -0.10265 )


     Representation #   1 mode #   1

     Self-consistent Calculation

      iter #   1 total cpu time :    13.2 secs   av.it.:   5.3
      thresh= 1.000E-02 alpha_mix =  0.700 |ddv_scf|^2 =  2.129E-04

      iter #   2 total cpu time :    13.6 secs   av.it.:   7.2
      thresh= 1.459E-03 alpha_mix =  0.700 |ddv_scf|^2 =  2.758E-04

      iter #   3 total cpu time :    13.9 secs   av.it.:   6.5
      thresh= 1.661E-03 alpha_mix =  0.700 |ddv_scf|^2 =  4.175E-09

      iter #   4 total cpu time :    14.4 secs   av.it.:   7.3
      thresh= 6.461E-06 alpha_mix =  0.700 |ddv_scf|^2 =  1.861E-10

      iter #   5 total cpu time :    14.7 secs   av.it.:   6.7
      thresh= 1.364E-06 alpha_mix =  0.700 |ddv_scf|^2 =  6.218E-12

      iter #   6 total cpu time :    15.1 secs   av.it.:   6.7
      thresh= 2.494E-07 alpha_mix =  0.700 |ddv_scf|^2 =  1.382E-13

      iter #   7 total cpu time :    15.5 secs   av.it.:   6.7
      thresh= 3.717E-08 alpha_mix =  0.700 |ddv_scf|^2 =  2.996E-15

      iter #   8 total cpu time :    15.9 secs   av.it.:   6.7
      thresh= 5.473E-09 alpha_mix =  0.700 |ddv_scf|^2 =  1.250E-18

     End of self-consistent calculation

     Convergence has been achieved 


     Representation #   2 mode #   2

     Self-consistent Calculation

      iter #   1 total cpu time :    16.4 secs   av.it.:   5.2
      thresh= 1.000E-02 alpha_mix =  0.700 |ddv_scf|^2 =  2.134E-04

      iter #   2 total cpu time :    16.7 secs   av.it.:   7.2
      thresh= 1.461E-03 alpha_mix =  0.700 |ddv_scf|^2 =  2.762E-04

      iter #   3 total cpu time :    17.1 secs   av.it.:   6.5
      thresh= 1.662E-03 alpha_mix =  0.700 |ddv_scf|^2 =  3.798E-09

      iter #   4 total cpu time :    17.5 secs   av.it.:   7.4
      thresh= 6.163E-06 alpha_mix =  0.700 |ddv_scf|^2 =  1.762E-10

      iter #   5 total cpu time :    17.8 secs   av.it.:   6.7
      thresh= 1.327E-06 alpha_mix =  0.700 |ddv_scf|^2 =  5.621E-12

      iter #   6 total cpu time :    18.2 secs   av.it.:   6.7
      thresh= 2.371E-07 alpha_mix =  0.700 |ddv_scf|^2 =  1.368E-13

      iter #   7 total cpu time :    18.6 secs   av.it.:   6.7
      thresh= 3.699E-08 alpha_mix =  0.700 |ddv_scf|^2 =  2.628E-15

      iter #   8 total cpu time :    18.9 secs   av.it.:   6.6
      thresh= 5.127E-09 alpha_mix =  0.700 |ddv_scf|^2 =  1.515E-18

     End of self-consistent calculation

     Convergence has been achieved 


     Representation #   3 modes #   3   4

     Self-consistent Calculation

      iter #   1 total cpu time :    19.7 secs   av.it.:   5.0
      thresh= 1.000E-02 alpha_mix =  0.700 |ddv_scf|^2 =  2.721E-07

      iter #   2 total cpu time :    20.5 secs   av.it.:   8.9
      thresh= 5.217E-05 alpha_mix =  0.700 |ddv_scf|^2 =  1.956E-09

      iter #   3 total cpu time :    21.4 secs   av.it.:   8.2
      thresh= 4.423E-06 alpha_mix =  0.700 |ddv_scf|^2 =  1.199E-10

      iter #   4 total cpu time :    22.2 secs   av.it.:   7.1
      thresh= 1.095E-06 alpha_mix =  0.700 |ddv_scf|^2 =  6.758E-14

      iter #   5 total cpu time :    23.0 secs   av.it.:   8.2
      thresh= 2.600E-08 alpha_mix =  0.700 |ddv_scf|^2 =  3.712E-15

      iter #   6 total cpu time :    23.8 secs   av.it.:   8.0
      thresh= 6.093E-09 alpha_mix =  0.700 |ddv_scf|^2 =  7.075E-18

     End of self-consistent calculation

     Convergence has been achieved 


     Representation #   4 modes #   5   6

     Self-consistent Calculation

      iter #   1 total cpu time :    24.8 secs   av.it.:   5.0
      thresh= 1.000E-02 alpha_mix =  0.700 |ddv_scf|^2 =  2.842E-07

      iter #   2 total cpu time :    25.7 secs   av.it.:   8.9
      thresh= 5.331E-05 alpha_mix =  0.700 |ddv_scf|^2 =  2.503E-09

      iter #   3 total cpu time :    26.5 secs   av.it.:   8.2
      thresh= 5.003E-06 alpha_mix =  0.700 |ddv_scf|^2 =  1.599E-10

      iter #   4 total cpu time :    27.2 secs   av.it.:   7.0
      thresh= 1.264E-06 alpha_mix =  0.700 |ddv_scf|^2 =  5.091E-14

      iter #   5 total cpu time :    28.0 secs   av.it.:   8.2
      thresh= 2.256E-08 alpha_mix =  0.700 |ddv_scf|^2 =  2.833E-15

      iter #   6 total cpu time :    28.8 secs   av.it.:   7.8
      thresh= 5.323E-09 alpha_mix =  0.700 |ddv_scf|^2 =  5.720E-18

     End of self-consistent calculation

     Convergence has been achieved 


     Representation #   5 mode #   7

     Self-consistent Calculation

      iter #   1 total cpu time :    29.3 secs   av.it.:   4.8
      thresh= 1.000E-02 alpha_mix =  0.700 |ddv_scf|^2 =  6.767E-06

      iter #   2 total cpu time :    29.7 secs   av.it.:   7.5
      thresh= 2.601E-04 alpha_mix =  0.700 |ddv_scf|^2 =  4.072E-07

      iter #   3 total cpu time :    30.1 secs   av.it.:   7.3
      thresh= 6.382E-05 alpha_mix =  0.700 |ddv_scf|^2 =  1.048E-09

      iter #   4 total cpu time :    30.5 secs   av.it.:   6.9
      thresh= 3.237E-06 alpha_mix =  0.700 |ddv_scf|^2 =  1.677E-11

      iter #   5 total cpu time :    30.8 secs   av.it.:   6.9
      thresh= 4.095E-07 alpha_mix =  0.700 |ddv_scf|^2 =  5.743E-14

      iter #   6 total cpu time :    31.2 secs   av.it.:   6.7
      thresh= 2.396E-08 alpha_mix =  0.700 |ddv_scf|^2 =  1.475E-15

      iter #   7 total cpu time :    31.6 secs   av.it.:   6.5
      thresh= 3.841E-09 alpha_mix =  0.700 |ddv_scf|^2 =  1.007E-17

     End of self-consistent calculation

     Convergence has been achieved 


     Representation #   6 mode #   8

     Self-consistent Calculation

      iter #   1 total cpu time :    32.0 secs   av.it.:   4.8
      thresh= 1.000E-02 alpha_mix =  0.700 |ddv_scf|^2 =  6.659E-06

      iter #   2 total cpu time :    32.4 secs   av.it.:   7.5
      thresh= 2.580E-04 alpha_mix =  0.700 |ddv_scf|^2 =  4.004E-07

      iter #   3 total cpu time :    32.7 secs   av.it.:   7.3
      thresh= 6.328E-05 alpha_mix =  0.700 |ddv_scf|^2 =  1.108E-09

      iter #   4 total cpu time :    33.1 secs   av.it.:   6.8
      thresh= 3.329E-06 alpha_mix =  0.700 |ddv_scf|^2 =  1.663E-11

      iter #   5 total cpu time :    33.5 secs   av.it.:   6.8
      thresh= 4.078E-07 alpha_mix =  0.700 |ddv_scf|^2 =  5.031E-14

      iter #   6 total cpu time :    33.9 secs   av.it.:   6.7
      thresh= 2.243E-08 alpha_mix =  0.700 |ddv_scf|^2 =  1.388E-15

      iter #   7 total cpu time :    34.2 secs   av.it.:   6.6
      thresh= 3.725E-09 alpha_mix =  0.700 |ddv_scf|^2 =  7.332E-18

     End of self-consistent calculation

     Convergence has been achieved 


     Representation #   7 modes #   9  10

     Self-consistent Calculation

      iter #   1 total cpu time :    35.1 secs   av.it.:   5.0
      thresh= 1.000E-02 alpha_mix =  0.700 |ddv_scf|^2 =  2.807E-07

      iter #   2 total cpu time :    36.0 secs   av.it.:   8.9
      thresh= 5.298E-05 alpha_mix =  0.700 |ddv_scf|^2 =  2.535E-09

      iter #   3 total cpu time :    36.8 secs   av.it.:   8.2
      thresh= 5.035E-06 alpha_mix =  0.700 |ddv_scf|^2 =  1.607E-10

      iter #   4 total cpu time :    37.5 secs   av.it.:   7.1
      thresh= 1.268E-06 alpha_mix =  0.700 |ddv_scf|^2 =  6.754E-14

      iter #   5 total cpu time :    38.3 secs   av.it.:   8.3
      thresh= 2.599E-08 alpha_mix =  0.700 |ddv_scf|^2 =  3.836E-15

      iter #   6 total cpu time :    39.1 secs   av.it.:   7.9
      thresh= 6.193E-09 alpha_mix =  0.700 |ddv_scf|^2 =  7.754E-18

     End of self-consistent calculation

     Convergence has been achieved 


     Representation #   8 modes #  11  12

     Self-consistent Calculation

      iter #   1 total cpu time :    40.0 secs   av.it.:   5.0
      thresh= 1.000E-02 alpha_mix =  0.700 |ddv_scf|^2 =  2.778E-07

      iter #   2 total cpu time :    40.8 secs   av.it.:   8.9
      thresh= 5.271E-05 alpha_mix =  0.700 |ddv_scf|^2 =  1.931E-09

      iter #   3 total cpu time :    41.6 secs   av.it.:   8.2
      thresh= 4.394E-06 alpha_mix =  0.700 |ddv_scf|^2 =  1.185E-10

      iter #   4 total cpu time :    42.3 secs   av.it.:   7.0
      thresh= 1.089E-06 alpha_mix =  0.700 |ddv_scf|^2 =  5.074E-14

      iter #   5 total cpu time :    43.1 secs   av.it.:   8.2
      thresh= 2.253E-08 alpha_mix =  0.700 |ddv_scf|^2 =  2.504E-15

      iter #   6 total cpu time :    43.9 secs   av.it.:   7.9
      thresh= 5.004E-09 alpha_mix =  0.700 |ddv_scf|^2 =  4.699E-18

     End of self-consistent calculation

     Convergence has been achieved 

     Number of q in the star =    1
     List of q in the star:
          1   0.000000000   0.000000000   0.000000000

          Dielectric constant in cartesian axis 

          (      74.558105274      -0.000000000       0.000000000 )
          (      -0.000000000      74.558105274       0.000000000 )
          (       0.000000000       0.000000000       3.597784260 )

          Effective charges (d Force / dE) in cartesian axis without acoustic sum rule applied (asr)

           atom      1   C  Mean Z*:        0.56287
      Ex  (        0.79194        0.00000       -0.00000 )
      Ey  (        0.00000        0.79194       -0.00000 )
      Ez  (        0.00000       -0.00000        0.10475 )
           atom      2   C  Mean Z*:       -0.57329
      Ex  (       -0.80966        0.00000       -0.00000 )
      Ey  (       -0.00000       -0.80966        0.00000 )
      Ez  (        0.00000       -0.00000       -0.10055 )
           atom      3   C  Mean Z*:        0.56287
      Ex  (        0.79194        0.00000        0.00000 )
      Ey  (        0.00000        0.79194        0.00000 )
      Ez  (        0.00000        0.00000        0.10475 )
           atom      4   C  Mean Z*:       -0.57329
      Ex  (       -0.80966        0.00000        0.00000 )
      Ey  (       -0.00000       -0.80966       -0.00000 )
      Ez  (        0.00000        0.00000       -0.10055 )

          Effective charges Sum: Mean:       -0.02083
             -0.03546       -0.00000        0.00000
              0.00000       -0.03546       -0.00000
             -0.00000        0.00000        0.00841

          Effective charges (d Force / dE) in cartesian axis with asr applied: 
           atom      1   C  Mean Z*:        0.56808
      E*x (        0.80080       -0.00000        0.00000 )
      E*y (        0.00000        0.80080       -0.00000 )
      E*z (       -0.00000       -0.00000        0.10265 )
           atom      2   C  Mean Z*:       -0.56808
      E*x (       -0.80080        0.00000       -0.00000 )
      E*y (       -0.00000       -0.80080        0.00000 )
      E*z (        0.00000       -0.00000       -0.10265 )
           atom      3   C  Mean Z*:        0.56808
      E*x (        0.80080       -0.00000        0.00000 )
      E*y (        0.00000        0.80080       -0.00000 )
      E*z (       -0.00000        0.00000        0.10265 )
           atom      4   C  Mean Z*:       -0.56808
      E*x (       -0.80080       -0.00000        0.00000 )
      E*y (       -0.00000       -0.80080       -0.00000 )
      E*z (        0.00000        0.00000       -0.10265 )

          Effective charges (d P / du) in cartesian axis 

           atom      1   C  
      Px  (        0.79194        0.00000       -0.00000 )
      Py  (        0.00000        0.79194        0.00000 )
      Pz  (       -0.00000       -0.00000        0.10475 )
           atom      2   C  
      Px  (       -0.80967        0.00000       -0.00000 )
      Py  (       -0.00000       -0.80967        0.00000 )
      Pz  (        0.00000       -0.00000       -0.10054 )
           atom      3   C  
      Px  (        0.79194        0.00000       -0.00000 )
      Py  (        0.00000        0.79194        0.00000 )
      Pz  (       -0.00000       -0.00000        0.10475 )
           atom      4   C  
      Px  (       -0.80967        0.00000        0.00000 )
      Py  (        0.00000       -0.80967        0.00000 )
      Pz  (       -0.00000        0.00000       -0.10054 )

     Diagonalizing the dynamical matrix

     q = (    0.000000000   0.000000000   0.000000000 ) 

 **************************************************************************
     freq (    1) =       3.736056 [THz] =     124.621411 [cm-1]
     freq (    2) =       3.736056 [THz] =     124.621411 [cm-1]
     freq (    3) =       4.072306 [THz] =     135.837509 [cm-1]
     freq (    4) =       4.072306 [THz] =     135.837509 [cm-1]
     freq (    5) =       4.804219 [THz] =     160.251488 [cm-1]
     freq (    6) =       7.283861 [THz] =     242.963448 [cm-1]
     freq (    7) =      26.564965 [THz] =     886.111862 [cm-1]
     freq (    8) =      26.795408 [THz] =     893.798596 [cm-1]
     freq (    9) =      46.832433 [THz] =    1562.161812 [cm-1]
     freq (   10) =      46.832433 [THz] =    1562.161812 [cm-1]
     freq (   11) =      47.160264 [THz] =    1573.097090 [cm-1]
     freq (   12) =      47.160264 [THz] =    1573.097090 [cm-1]
 **************************************************************************

     Mode symmetry, D_6h(6/mmm) point group:

     freq (   1-   2) =        124.6  [cm-1]   --> E_1u            I  
     freq (   3-   4) =        135.8  [cm-1]   --> E_2g            R  
     freq (   5-   5) =        160.3  [cm-1]   --> A_2u            I  
     freq (   6-   6) =        243.0  [cm-1]   --> B_1g               
     freq (   7-   7) =        886.1  [cm-1]   --> B_1g               
     freq (   8-   8) =        893.8  [cm-1]   --> A_2u            I  
     freq (   9-  10) =       1562.2  [cm-1]   --> E_2g            R  
     freq (  11-  12) =       1573.1  [cm-1]   --> E_1u            I  

     Calculation of q =    0.0000000   0.0000000  -0.1936076
     Subspace diagonalization in iterative solution of the eigenvalue problem:
     a serial algorithm will be used


     Parallelization info
     --------------------
     sticks:   dense  smooth     PW     G-vecs:    dense   smooth      PW
     Min          43      30     10                 1516      823     184
     Max          45      32     11                 1521      825     193
     Sum         265     187     61                 9111     4943    1117

     Using Slab Decomposition


     Title: 
     Graphite                                                                   


     bravais-lattice index     =            4
     lattice parameter (alat)  =       4.6463  a.u.
     unit-cell volume          =     224.3370 (a.u.)^3
     number of atoms/cell      =            4
     number of atomic types    =            1
     number of electrons       =        16.00
     number of Kohn-Sham states=            8
     kinetic-energy cutoff     =      30.0000  Ry
     charge density cutoff     =     180.0000  Ry
     Exchange-correlation= PBE
                           (   1   4   3   4   0   0   0)

     celldm(1)=   4.646303  celldm(2)=   0.000000  celldm(3)=   2.582543
     celldm(4)=   0.000000  celldm(5)=   0.000000  celldm(6)=   0.000000

     crystal axes: (cart. coord. in units of alat)
               a(1) = (   1.000000   0.000000   0.000000 )  
               a(2) = (  -0.500000   0.866025   0.000000 )  
               a(3) = (   0.000000   0.000000   2.582543 )  

     reciprocal axes: (cart. coord. in units 2 pi/alat)
               b(1) = (  1.000000  0.577350 -0.000000 )  
               b(2) = (  0.000000  1.154701  0.000000 )  
               b(3) = (  0.000000 -0.000000  0.387215 )  


     PseudoPot. # 1 for C  read from file:
     /home/bonacc_m/Codes/q-e/pseudo/C.pbe-rrkjus.UPF
     MD5 check sum: c9ac5a99bc85b198593446162950cd17
     Pseudo is Ultrasoft, Zval =  4.0
     Generated by new atomic code, or converted to UPF format
     Using radial grid of  627 points,  4 beta functions with: 
                l(1) =   0
                l(2) =   0
                l(3) =   1
                l(4) =   1
     Q(r) pseudized with 0 coefficients 


     atomic species   valence    mass     pseudopotential
        C              4.00    12.00000     C ( 1.00)

     24 Sym. Ops., with inversion, found



   Cartesian axes

     site n.     atom                  positions (alat units)
         1           C   tau(   1) = (   0.0000000   0.0000000   0.0000000  )
         2           C   tau(   2) = (  -0.0000000   0.5773503   0.0000000  )
         3           C   tau(   3) = (   0.0000000   0.0000000   1.2912714  )
         4           C   tau(   4) = (   0.5000000   0.2886751   1.2912714  )

     number of k points=    80
                       cart. coord. in units 2pi/alat
        k(    1) = (   0.0625000   0.1082532   0.0484019), wk =   0.0312500
        k(    2) = (   0.0625000   0.1082532  -0.1452057), wk =   0.0000000
        k(    3) = (   0.0625000   0.1082532   0.1452057), wk =   0.0312500
        k(    4) = (   0.0625000   0.1082532  -0.0484019), wk =   0.0000000
        k(    5) = (   0.0625000   0.2525907   0.0484019), wk =   0.0625000
        k(    6) = (   0.0625000   0.2525907  -0.1452057), wk =   0.0000000
        k(    7) = (   0.0625000   0.2525907   0.1452057), wk =   0.0625000
        k(    8) = (   0.0625000   0.2525907  -0.0484019), wk =   0.0000000
        k(    9) = (   0.0625000   0.3969283   0.0484019), wk =   0.0625000
        k(   10) = (   0.0625000   0.3969283  -0.1452057), wk =   0.0000000
        k(   11) = (   0.0625000   0.3969283   0.1452057), wk =   0.0625000
        k(   12) = (   0.0625000   0.3969283  -0.0484019), wk =   0.0000000
        k(   13) = (   0.0625000   0.5412659   0.0484019), wk =   0.0625000
        k(   14) = (   0.0625000   0.5412659  -0.1452057), wk =   0.0000000
        k(   15) = (   0.0625000   0.5412659   0.1452057), wk =   0.0625000
        k(   16) = (   0.0625000   0.5412659  -0.0484019), wk =   0.0000000
        k(   17) = (   0.0625000  -0.4690971   0.0484019), wk =   0.0625000
        k(   18) = (   0.0625000  -0.4690971  -0.1452057), wk =   0.0000000
        k(   19) = (   0.0625000  -0.4690971   0.1452057), wk =   0.0625000
        k(   20) = (   0.0625000  -0.4690971  -0.0484019), wk =   0.0000000
        k(   21) = (   0.0625000  -0.3247595   0.0484019), wk =   0.0625000
        k(   22) = (   0.0625000  -0.3247595  -0.1452057), wk =   0.0000000
        k(   23) = (   0.0625000  -0.3247595   0.1452057), wk =   0.0625000
        k(   24) = (   0.0625000  -0.3247595  -0.0484019), wk =   0.0000000
        k(   25) = (   0.0625000  -0.1804220   0.0484019), wk =   0.0625000
        k(   26) = (   0.0625000  -0.1804220  -0.1452057), wk =   0.0000000
        k(   27) = (   0.0625000  -0.1804220   0.1452057), wk =   0.0625000
        k(   28) = (   0.0625000  -0.1804220  -0.0484019), wk =   0.0000000
        k(   29) = (   0.0625000  -0.0360844   0.0484019), wk =   0.0312500
        k(   30) = (   0.0625000  -0.0360844  -0.1452057), wk =   0.0000000
        k(   31) = (   0.0625000  -0.0360844   0.1452057), wk =   0.0312500
        k(   32) = (   0.0625000  -0.0360844  -0.0484019), wk =   0.0000000
        k(   33) = (   0.1875000   0.3247595   0.0484019), wk =   0.0312500
        k(   34) = (   0.1875000   0.3247595  -0.1452057), wk =   0.0000000
        k(   35) = (   0.1875000   0.3247595   0.1452057), wk =   0.0312500
        k(   36) = (   0.1875000   0.3247595  -0.0484019), wk =   0.0000000
        k(   37) = (   0.1875000   0.4690971   0.0484019), wk =   0.0625000
        k(   38) = (   0.1875000   0.4690971  -0.1452057), wk =   0.0000000
        k(   39) = (   0.1875000   0.4690971   0.1452057), wk =   0.0625000
        k(   40) = (   0.1875000   0.4690971  -0.0484019), wk =   0.0000000
        k(   41) = (   0.1875000   0.6134347   0.0484019), wk =   0.0625000
        k(   42) = (   0.1875000   0.6134347  -0.1452057), wk =   0.0000000
        k(   43) = (   0.1875000   0.6134347   0.1452057), wk =   0.0625000
        k(   44) = (   0.1875000   0.6134347  -0.0484019), wk =   0.0000000
        k(   45) = (   0.1875000  -0.3969283   0.0484019), wk =   0.0625000
        k(   46) = (   0.1875000  -0.3969283  -0.1452057), wk =   0.0000000
        k(   47) = (   0.1875000  -0.3969283   0.1452057), wk =   0.0625000
        k(   48) = (   0.1875000  -0.3969283  -0.0484019), wk =   0.0000000
        k(   49) = (   0.1875000  -0.2525907   0.0484019), wk =   0.0625000
        k(   50) = (   0.1875000  -0.2525907  -0.1452057), wk =   0.0000000
        k(   51) = (   0.1875000  -0.2525907   0.1452057), wk =   0.0625000
        k(   52) = (   0.1875000  -0.2525907  -0.0484019), wk =   0.0000000
        k(   53) = (   0.1875000  -0.1082532   0.0484019), wk =   0.0312500
        k(   54) = (   0.1875000  -0.1082532  -0.1452057), wk =   0.0000000
        k(   55) = (   0.1875000  -0.1082532   0.1452057), wk =   0.0312500
        k(   56) = (   0.1875000  -0.1082532  -0.0484019), wk =   0.0000000
        k(   57) = (   0.3125000   0.5412659   0.0484019), wk =   0.0312500
        k(   58) = (   0.3125000   0.5412659  -0.1452057), wk =   0.0000000
        k(   59) = (   0.3125000   0.5412659   0.1452057), wk =   0.0312500
        k(   60) = (   0.3125000   0.5412659  -0.0484019), wk =   0.0000000
        k(   61) = (   0.3125000   0.6856034   0.0484019), wk =   0.0625000
        k(   62) = (   0.3125000   0.6856034  -0.1452057), wk =   0.0000000
        k(   63) = (   0.3125000   0.6856034   0.1452057), wk =   0.0625000
        k(   64) = (   0.3125000   0.6856034  -0.0484019), wk =   0.0000000
        k(   65) = (   0.3125000  -0.3247595   0.0484019), wk =   0.0625000
        k(   66) = (   0.3125000  -0.3247595  -0.1452057), wk =   0.0000000
        k(   67) = (   0.3125000  -0.3247595   0.1452057), wk =   0.0625000
        k(   68) = (   0.3125000  -0.3247595  -0.0484019), wk =   0.0000000
        k(   69) = (   0.3125000  -0.1804220   0.0484019), wk =   0.0312500
        k(   70) = (   0.3125000  -0.1804220  -0.1452057), wk =   0.0000000
        k(   71) = (   0.3125000  -0.1804220   0.1452057), wk =   0.0312500
        k(   72) = (   0.3125000  -0.1804220  -0.0484019), wk =   0.0000000
        k(   73) = (   0.4375000   0.7577722   0.0484019), wk =   0.0312500
        k(   74) = (   0.4375000   0.7577722  -0.1452057), wk =   0.0000000
        k(   75) = (   0.4375000   0.7577722   0.1452057), wk =   0.0312500
        k(   76) = (   0.4375000   0.7577722  -0.0484019), wk =   0.0000000
        k(   77) = (   0.4375000  -0.2525907   0.0484019), wk =   0.0312500
        k(   78) = (   0.4375000  -0.2525907  -0.1452057), wk =   0.0000000
        k(   79) = (   0.4375000  -0.2525907   0.1452057), wk =   0.0312500
        k(   80) = (   0.4375000  -0.2525907  -0.0484019), wk =   0.0000000

     Dense  grid:     9111 G-vectors     FFT dimensions: (  20,  20,  54)

     Smooth grid:     4943 G-vectors     FFT dimensions: (  18,  18,  48)

     Estimated max dynamical RAM per process >       1.95 MB

     Estimated total dynamical RAM >      11.73 MB

     The potential is recalculated from file :
     /home/bonacc_m/Documents/phonons/example16/TMP_graphite/_ph0/graphite.save/charge-density

     Starting wfcs are   16 atomic wfcs

     Band Structure Calculation
     Davidson diagonalization with overlap

     ethr =  6.25E-11,  avg # of iterations = 10.4

     total cpu time spent up to now is        1.0 secs

     End of band structure calculation

          k = 0.0625 0.1083 0.0484 (   600 PWs)   bands (ev):

   -11.7683 -11.3568  -0.7009   1.6374   3.6195   3.6613   4.0550   4.0882

          k = 0.0625 0.1083-0.1452 (   601 PWs)   bands (ev):

   -11.6550 -11.4849  -0.1030   0.8471   3.6326   3.6500   4.0637   4.0775

          k = 0.0625 0.1083 0.1452 (   601 PWs)   bands (ev):

   -11.6550 -11.4849  -0.1030   0.8471   3.6326   3.6500   4.0637   4.0775

          k = 0.0625 0.1083-0.0484 (   600 PWs)   bands (ev):

   -11.7683 -11.3568  -0.7009   1.6374   3.6195   3.6613   4.0550   4.0882

          k = 0.0625 0.2526 0.0484 (   619 PWs)   bands (ev):

   -10.8381 -10.4486   0.4227   1.0007   1.1190   2.6642   2.6678   2.7374

          k = 0.0625 0.2526-0.1452 (   616 PWs)   bands (ev):

   -10.7304 -10.5694   0.9926   1.0366   1.0884   1.9130   2.6859   2.7158

          k = 0.0625 0.2526 0.1452 (   616 PWs)   bands (ev):

   -10.7304 -10.5694   0.9926   1.0366   1.0884   1.9130   2.6859   2.7158

          k = 0.0625 0.2526-0.0484 (   619 PWs)   bands (ev):

   -10.8381 -10.4486   0.4227   1.0007   1.1190   2.6642   2.6678   2.7374

          k = 0.0625 0.3969 0.0484 (   625 PWs)   bands (ev):

    -9.1937  -8.8432  -2.2657  -2.0697   1.4884   1.5786   2.3612   4.3666

          k = 0.0625 0.3969-0.1452 (   627 PWs)   bands (ev):

    -9.0962  -8.9512  -2.2100  -2.1288   1.5145   1.5519   2.8870   3.7073

          k = 0.0625 0.3969 0.1452 (   627 PWs)   bands (ev):

    -9.0962  -8.9512  -2.2100  -2.1288   1.5145   1.5519   2.8870   3.7073

          k = 0.0625 0.3969-0.0484 (   625 PWs)   bands (ev):

    -9.1937  -8.8432  -2.2657  -2.0697   1.4884   1.5786   2.3612   4.3666

          k = 0.0625 0.5413 0.0484 (   627 PWs)   bands (ev):

    -6.9723  -6.7074  -5.2419  -5.0199   0.9393   1.0349   4.6390   5.7223

          k = 0.0625 0.5413-0.1452 (   624 PWs)   bands (ev):

    -6.8959  -6.7860  -5.1827  -5.0905   0.9669   1.0065   5.0039   5.4713

          k = 0.0625 0.5413 0.1452 (   624 PWs)   bands (ev):

    -6.8959  -6.7860  -5.1827  -5.0905   0.9669   1.0065   5.0039   5.4713

          k = 0.0625 0.5413-0.0484 (   627 PWs)   bands (ev):

    -6.9723  -6.7074  -5.2419  -5.0199   0.9393   1.0349   4.6390   5.7223

          k = 0.0625-0.4691 0.0484 (   626 PWs)   bands (ev):

    -8.1286  -7.8054  -3.8503  -3.6231   1.1249   1.2188   3.5443   5.2640

          k = 0.0625-0.4691-0.1452 (   627 PWs)   bands (ev):

    -8.0381  -7.9044  -3.7862  -3.6922   1.1520   1.1909   4.0165   4.7279

          k = 0.0625-0.4691 0.1452 (   627 PWs)   bands (ev):

    -8.0381  -7.9044  -3.7862  -3.6922   1.1520   1.1909   4.0165   4.7279

          k = 0.0625-0.4691-0.0484 (   626 PWs)   bands (ev):

    -8.1286  -7.8054  -3.8503  -3.6231   1.1249   1.2188   3.5443   5.2640

          k = 0.0625-0.3248 0.0484 (   623 PWs)   bands (ev):

   -10.1019  -9.7298  -0.6200  -0.4611   1.3009   2.0126   2.0962   3.4541

          k = 0.0625-0.3248-0.1452 (   624 PWs)   bands (ev):

    -9.9987  -9.8449  -0.5746  -0.5088   1.8575   2.0368   2.0714   2.7352

          k = 0.0625-0.3248 0.1452 (   624 PWs)   bands (ev):

    -9.9987  -9.8449  -0.5746  -0.5088   1.8575   2.0368   2.0714   2.7352

          k = 0.0625-0.3248-0.0484 (   623 PWs)   bands (ev):

   -10.1019  -9.7298  -0.6200  -0.4611   1.3009   2.0126   2.0962   3.4541

          k = 0.0625-0.1804 0.0484 (   613 PWs)   bands (ev):

   -11.3950 -10.9923  -0.2485   2.0540   2.4729   2.5473   3.3864   3.4392

          k = 0.0625-0.1804-0.1452 (   607 PWs)   bands (ev):

   -11.2839 -11.1175   0.3411   1.2771   2.4952   2.5259   3.4012   3.4231

          k = 0.0625-0.1804 0.1452 (   607 PWs)   bands (ev):

   -11.2839 -11.1175   0.3411   1.2771   2.4952   2.5259   3.4012   3.4231

          k = 0.0625-0.1804-0.0484 (   613 PWs)   bands (ev):

   -11.3950 -10.9923  -0.2485   2.0540   2.4729   2.5473   3.3864   3.4392

          k = 0.0625-0.0361 0.0484 (   596 PWs)   bands (ev):

   -11.9555 -11.5395  -0.9285   1.4269   4.2682   4.3112   4.4462   4.4849

          k = 0.0625-0.0361-0.1452 (   604 PWs)   bands (ev):

   -11.8411 -11.6692  -0.3266   0.6302   4.2807   4.2985   4.4574   4.4735

          k = 0.0625-0.0361 0.1452 (   604 PWs)   bands (ev):

   -11.8411 -11.6692  -0.3266   0.6302   4.2807   4.2985   4.4574   4.4735

          k = 0.0625-0.0361-0.0484 (   596 PWs)   bands (ev):

   -11.9555 -11.5395  -0.9285   1.4269   4.2682   4.3112   4.4462   4.4849

          k = 0.1875 0.3248 0.0484 (   622 PWs)   bands (ev):

    -9.5562  -9.1970  -0.8451  -0.7564   0.5809   0.6462   1.9513   4.0358

          k = 0.1875 0.3248-0.1452 (   625 PWs)   bands (ev):

    -9.4564  -9.3079  -0.8177  -0.7810   0.5967   0.6238   2.4926   3.3432

          k = 0.1875 0.3248 0.1452 (   625 PWs)   bands (ev):

    -9.4564  -9.3079  -0.8177  -0.7810   0.5967   0.6238   2.4926   3.3432

          k = 0.1875 0.3248-0.0484 (   622 PWs)   bands (ev):

    -9.5562  -9.1970  -0.8451  -0.7564   0.5809   0.6462   1.9513   4.0358

          k = 0.1875 0.4691 0.0484 (   630 PWs)   bands (ev):

    -7.6107  -7.3008  -3.5011  -3.3035  -0.7451  -0.6098   4.1750   5.8577

          k = 0.1875 0.4691-0.1452 (   627 PWs)   bands (ev):

    -7.5238  -7.3956  -3.4448  -3.3630  -0.7073  -0.6513   4.6355   5.3307

          k = 0.1875 0.4691 0.1452 (   627 PWs)   bands (ev):

    -7.5238  -7.3956  -3.4448  -3.3630  -0.7073  -0.6513   4.6355   5.3307

          k = 0.1875 0.4691-0.0484 (   630 PWs)   bands (ev):

    -7.6107  -7.3008  -3.5011  -3.3035  -0.7451  -0.6098   4.1750   5.8577

          k = 0.1875 0.6134 0.0484 (   629 PWs)   bands (ev):

    -6.4811  -6.2289  -4.8066  -4.6044  -0.9746  -0.8282   5.2933   6.3772

          k = 0.1875 0.6134-0.1452 (   629 PWs)   bands (ev):

    -6.4082  -6.3035  -4.7525  -4.6684  -0.9333  -0.8727   5.6581   6.1277

          k = 0.1875 0.6134 0.1452 (   629 PWs)   bands (ev):

    -6.4082  -6.3035  -4.7525  -4.6684  -0.9333  -0.8727   5.6581   6.1277

          k = 0.1875 0.6134-0.0484 (   629 PWs)   bands (ev):

    -6.4811  -6.2289  -4.8066  -4.6044  -0.9746  -0.8282   5.2933   6.3772

          k = 0.1875-0.3969 0.0484 (   628 PWs)   bands (ev):

    -8.6588  -8.3213  -2.0965  -1.9539  -0.2498  -0.1455   2.9986   4.9378

          k = 0.1875-0.3969-0.1452 (   629 PWs)   bands (ev):

    -8.5647  -8.4251  -2.0546  -1.9954  -0.2220  -0.1787   3.5089   4.3027

          k = 0.1875-0.3969 0.1452 (   629 PWs)   bands (ev):

    -8.5647  -8.4251  -2.0546  -1.9954  -0.2220  -0.1787   3.5089   4.3027

          k = 0.1875-0.3969-0.0484 (   628 PWs)   bands (ev):

    -8.6588  -8.3213  -2.0965  -1.9539  -0.2498  -0.1455   2.9986   4.9378

          k = 0.1875-0.2526 0.0484 (   622 PWs)   bands (ev):

   -10.2855  -9.9090   0.1297   0.2379   1.0852   1.6591   1.7338   3.2653

          k = 0.1875-0.2526-0.1452 (   619 PWs)   bands (ev):

   -10.1812 -10.0256   0.1615   0.2062   1.6472   1.6797   1.7106   2.5357

          k = 0.1875-0.2526 0.1452 (   619 PWs)   bands (ev):

   -10.1812 -10.0256   0.1615   0.2062   1.6472   1.6797   1.7106   2.5357

          k = 0.1875-0.2526-0.0484 (   622 PWs)   bands (ev):

   -10.2855  -9.9090   0.1297   0.2379   1.0852   1.6591   1.7338   3.2653

          k = 0.1875-0.1083 0.0484 (   618 PWs)   bands (ev):

   -11.2089 -10.8106  -0.0238   1.8244   1.9329   2.2600   3.2682   3.3340

          k = 0.1875-0.1083-0.1452 (   611 PWs)   bands (ev):

   -11.0990 -10.9344   0.5613   1.4892   1.8569   1.9012   3.2874   3.3147

          k = 0.1875-0.1083 0.1452 (   611 PWs)   bands (ev):

   -11.0990 -10.9344   0.5613   1.4892   1.8569   1.9012   3.2874   3.3147

          k = 0.1875-0.1083-0.0484 (   618 PWs)   bands (ev):

   -11.2089 -10.8106  -0.0238   1.8244   1.9329   2.2600   3.2682   3.3340

          k = 0.3125 0.5413 0.0484 (   629 PWs)   bands (ev):

    -5.5530  -5.3297  -4.5078  -4.3771  -2.7518  -2.6902   6.4388   7.5159

          k = 0.3125 0.5413-0.1452 (   618 PWs)   bands (ev):

    -5.4877  -5.3950  -4.4693  -4.4154  -2.7414  -2.7157   6.8106   7.2803

          k = 0.3125 0.5413 0.1452 (   618 PWs)   bands (ev):

    -5.4877  -5.3950  -4.4693  -4.4154  -2.7414  -2.7157   6.8106   7.2803

          k = 0.3125 0.5413-0.0484 (   629 PWs)   bands (ev):

    -5.5530  -5.3297  -4.5078  -4.3771  -2.7518  -2.6902   6.4388   7.5159

          k = 0.3125 0.6856 0.0484 (   629 PWs)   bands (ev):

    -6.6101  -6.3320  -3.9565  -3.7895  -1.9527  -1.8255   5.2939   6.7222

          k = 0.3125 0.6856-0.1452 (   623 PWs)   bands (ev):

    -6.5315  -6.4164  -3.9080  -3.8387  -1.9197  -1.8669   5.7061   6.3037

          k = 0.3125 0.6856 0.1452 (   623 PWs)   bands (ev):

    -6.5315  -6.4164  -3.9080  -3.8387  -1.9197  -1.8669   5.7061   6.3037

          k = 0.3125 0.6856-0.0484 (   629 PWs)   bands (ev):

    -6.6101  -6.3320  -3.9565  -3.7895  -1.9527  -1.8255   5.2939   6.7222

          k = 0.3125-0.3248 0.0484 (   626 PWs)   bands (ev):

    -8.4807  -8.1477  -2.9478  -2.7455   0.4877   0.6018   3.1842   5.0554

          k = 0.3125-0.3248-0.1452 (   630 PWs)   bands (ev):

    -8.3877  -8.2500  -2.8903  -2.8065   0.5203   0.5676   3.6825   4.4507

          k = 0.3125-0.3248 0.1452 (   630 PWs)   bands (ev):

    -8.3877  -8.2500  -2.8903  -2.8065   0.5203   0.5676   3.6825   4.4507

          k = 0.3125-0.3248-0.0484 (   626 PWs)   bands (ev):

    -8.4807  -8.1477  -2.9478  -2.7455   0.4877   0.6018   3.1842   5.0554

          k = 0.3125-0.1804 0.0484 (   619 PWs)   bands (ev):

    -9.7366  -9.3731  -1.4718  -1.2897   1.7289   2.0282   2.1071   3.8255

          k = 0.3125-0.1804-0.1452 (   622 PWs)   bands (ev):

    -9.6357  -9.4854  -1.4199  -1.3445   2.0511   2.0837   2.2737   3.1293

          k = 0.3125-0.1804 0.1452 (   622 PWs)   bands (ev):

    -9.6357  -9.4854  -1.4199  -1.3445   2.0511   2.0837   2.2737   3.1293

          k = 0.3125-0.1804-0.0484 (   619 PWs)   bands (ev):

    -9.7366  -9.3731  -1.4718  -1.2897   1.7289   2.0282   2.1071   3.8255

          k = 0.4375 0.7578 0.0484 (   625 PWs)   bands (ev):

    -6.4178  -6.2624  -5.3685  -5.2575   0.0981   0.2199   5.1298   5.9604

          k = 0.4375 0.7578-0.1452 (   626 PWs)   bands (ev):

    -6.3640  -6.2982  -5.3522  -5.3047   0.1330   0.1835   5.4510   5.8166

          k = 0.4375 0.7578 0.1452 (   626 PWs)   bands (ev):

    -6.3640  -6.2982  -5.3522  -5.3047   0.1330   0.1835   5.4510   5.8166

          k = 0.4375 0.7578-0.0484 (   625 PWs)   bands (ev):

    -6.4178  -6.2624  -5.3685  -5.2575   0.0981   0.2199   5.1298   5.9604

          k = 0.4375-0.2526 0.0484 (   626 PWs)   bands (ev):

    -7.6139  -7.3083  -4.6443  -4.4057   1.3169   1.4008   4.0511   5.5077

          k = 0.4375-0.2526-0.1452 (   623 PWs)   bands (ev):

    -7.5280  -7.4015  -4.5777  -4.4789   1.3412   1.3760   4.4791   5.0912

          k = 0.4375-0.2526 0.1452 (   623 PWs)   bands (ev):

    -7.5280  -7.4015  -4.5777  -4.4789   1.3412   1.3760   4.4791   5.0912

          k = 0.4375-0.2526-0.0484 (   626 PWs)   bands (ev):

    -7.6139  -7.3083  -4.6443  -4.4057   1.3169   1.4008   4.0511   5.5077

     highest occupied level (ev):     7.5159

     Writing config to output data dir /home/bonacc_m/Documents/phonons/example16/TMP_graphite/_ph0/graphite.save/

     Graphite                                                                   

     bravais-lattice index     =            4
     lattice parameter (alat)  =       4.6463  a.u.
     unit-cell volume          =     224.3370 (a.u.)^3
     number of atoms/cell      =            4
     number of atomic types    =            1
     kinetic-energy cut-off    =      30.0000  Ry
     charge density cut-off    =     180.0000  Ry
     convergence threshold     =      1.0E-16
     beta                      =       0.7000
     number of iterations used =            4
     Exchange-correlation= PBE
                           (   1   4   3   4   0   0   0)


     celldm(1)=    4.64630  celldm(2)=    0.00000  celldm(3)=    2.58254
     celldm(4)=    0.00000  celldm(5)=    0.00000  celldm(6)=    0.00000

     crystal axes: (cart. coord. in units of alat)
               a(1) = (  1.0000  0.0000  0.0000 )  
               a(2) = ( -0.5000  0.8660  0.0000 )  
               a(3) = (  0.0000  0.0000  2.5825 )  

     reciprocal axes: (cart. coord. in units 2 pi/alat)
               b(1) = (  1.0000  0.5774 -0.0000 )  
               b(2) = (  0.0000  1.1547  0.0000 )  
               b(3) = (  0.0000 -0.0000  0.3872 )  


     Atoms inside the unit cell: 

     Cartesian axes

     site n.  atom      mass           positions (alat units)
        1     C   12.0000   tau(    1) = (    0.00000    0.00000    0.00000  )
        2     C   12.0000   tau(    2) = (   -0.00000    0.57735    0.00000  )
        3     C   12.0000   tau(    3) = (    0.00000    0.00000    1.29127  )
        4     C   12.0000   tau(    4) = (    0.50000    0.28868    1.29127  )

     Computing dynamical matrix for 
                    q = (   0.0000000   0.0000000  -0.1936076 )

     25 Sym.Ops. (with q -> -q+G )


     G cutoff =   98.4301  (   1521 G-vectors)     FFT grid: ( 20, 20, 54)
     G cutoff =   65.6201  (    825 G-vectors)  smooth grid: ( 18, 18, 48)
     number of k points=    80

     PseudoPot. # 1 for C  read from file:
     /home/bonacc_m/Codes/q-e/pseudo/C.pbe-rrkjus.UPF
     MD5 check sum: c9ac5a99bc85b198593446162950cd17
     Pseudo is Ultrasoft, Zval =  4.0
     Generated by new atomic code, or converted to UPF format
     Using radial grid of  627 points,  4 beta functions with: 
                l(1) =   0
                l(2) =   0
                l(3) =   1
                l(4) =   1
     Q(r) pseudized with 0 coefficients 



     Atomic displacements:
     There are    4 irreducible representations

     Representation     1      4 modes -  To be done

     Representation     2      2 modes -  To be done

     Representation     3      2 modes -  To be done

     Representation     4      4 modes -  To be done



     Alpha used in Ewald sum =   1.8000
     PHONON       :     43.49s CPU     45.64s WALL



     Representation #   1 modes #   1   2   3   4

     Self-consistent Calculation

      iter #   1 total cpu time :    46.8 secs   av.it.:   5.1
      thresh= 1.000E-02 alpha_mix =  0.700 |ddv_scf|^2 =  7.059E-08

      iter #   2 total cpu time :    48.6 secs   av.it.:   9.6
      thresh= 2.657E-05 alpha_mix =  0.700 |ddv_scf|^2 =  6.308E-10

      iter #   3 total cpu time :    50.4 secs   av.it.:   8.8
      thresh= 2.512E-06 alpha_mix =  0.700 |ddv_scf|^2 =  4.008E-11

      iter #   4 total cpu time :    51.9 secs   av.it.:   7.8
      thresh= 6.331E-07 alpha_mix =  0.700 |ddv_scf|^2 =  1.453E-14

      iter #   5 total cpu time :    53.6 secs   av.it.:   8.9
      thresh= 1.206E-08 alpha_mix =  0.700 |ddv_scf|^2 =  8.184E-16

      iter #   6 total cpu time :    55.3 secs   av.it.:   8.7
      thresh= 2.861E-09 alpha_mix =  0.700 |ddv_scf|^2 =  1.681E-18

     End of self-consistent calculation

     Convergence has been achieved 


     Representation #   2 modes #   5   6

     Self-consistent Calculation

      iter #   1 total cpu time :    56.1 secs   av.it.:   5.4
      thresh= 1.000E-02 alpha_mix =  0.700 |ddv_scf|^2 =  2.560E-04

      iter #   2 total cpu time :    56.9 secs   av.it.:   7.8
      thresh= 1.600E-03 alpha_mix =  0.700 |ddv_scf|^2 =  7.117E-04

      iter #   3 total cpu time :    57.6 secs   av.it.:   6.7
      thresh= 2.668E-03 alpha_mix =  0.700 |ddv_scf|^2 =  5.968E-07

      iter #   4 total cpu time :    58.4 secs   av.it.:   7.6
      thresh= 7.726E-05 alpha_mix =  0.700 |ddv_scf|^2 =  2.417E-09

      iter #   5 total cpu time :    59.2 secs   av.it.:   8.5
      thresh= 4.916E-06 alpha_mix =  0.700 |ddv_scf|^2 =  4.288E-10

      iter #   6 total cpu time :    60.0 secs   av.it.:   8.3
      thresh= 2.071E-06 alpha_mix =  0.700 |ddv_scf|^2 =  5.650E-12

      iter #   7 total cpu time :    60.8 secs   av.it.:   8.3
      thresh= 2.377E-07 alpha_mix =  0.700 |ddv_scf|^2 =  7.846E-13

      iter #   8 total cpu time :    61.5 secs   av.it.:   7.1
      thresh= 8.858E-08 alpha_mix =  0.700 |ddv_scf|^2 =  1.157E-15

      iter #   9 total cpu time :    62.3 secs   av.it.:   7.2
      thresh= 3.401E-09 alpha_mix =  0.700 |ddv_scf|^2 =  1.245E-16

      iter #  10 total cpu time :    63.1 secs   av.it.:   8.1
      thresh= 1.116E-09 alpha_mix =  0.700 |ddv_scf|^2 =  2.797E-18

     End of self-consistent calculation

     Convergence has been achieved 


     Representation #   3 modes #   7   8

     Self-consistent Calculation

      iter #   1 total cpu time :    63.7 secs   av.it.:   5.5
      thresh= 1.000E-02 alpha_mix =  0.700 |ddv_scf|^2 =  2.518E-04

      iter #   2 total cpu time :    64.5 secs   av.it.:   7.8
      thresh= 1.587E-03 alpha_mix =  0.700 |ddv_scf|^2 =  7.015E-04

      iter #   3 total cpu time :    65.2 secs   av.it.:   6.7
      thresh= 2.649E-03 alpha_mix =  0.700 |ddv_scf|^2 =  6.149E-07

      iter #   4 total cpu time :    66.0 secs   av.it.:   7.7
      thresh= 7.842E-05 alpha_mix =  0.700 |ddv_scf|^2 =  2.591E-09

      iter #   5 total cpu time :    66.8 secs   av.it.:   8.5
      thresh= 5.090E-06 alpha_mix =  0.700 |ddv_scf|^2 =  4.340E-10

      iter #   6 total cpu time :    67.6 secs   av.it.:   8.3
      thresh= 2.083E-06 alpha_mix =  0.700 |ddv_scf|^2 =  5.654E-12

      iter #   7 total cpu time :    68.4 secs   av.it.:   8.3
      thresh= 2.378E-07 alpha_mix =  0.700 |ddv_scf|^2 =  8.594E-13

      iter #   8 total cpu time :    69.1 secs   av.it.:   7.2
      thresh= 9.270E-08 alpha_mix =  0.700 |ddv_scf|^2 =  1.292E-15

      iter #   9 total cpu time :    69.9 secs   av.it.:   7.3
      thresh= 3.595E-09 alpha_mix =  0.700 |ddv_scf|^2 =  1.395E-16

      iter #  10 total cpu time :    70.7 secs   av.it.:   8.0
      thresh= 1.181E-09 alpha_mix =  0.700 |ddv_scf|^2 =  2.468E-18

     End of self-consistent calculation

     Convergence has been achieved 


     Representation #   4 modes #   9  10  11  12

     Self-consistent Calculation

      iter #   1 total cpu time :    71.8 secs   av.it.:   5.1
      thresh= 1.000E-02 alpha_mix =  0.700 |ddv_scf|^2 =  6.874E-08

      iter #   2 total cpu time :    73.6 secs   av.it.:   9.6
      thresh= 2.622E-05 alpha_mix =  0.700 |ddv_scf|^2 =  4.876E-10

      iter #   3 total cpu time :    75.3 secs   av.it.:   9.0
      thresh= 2.208E-06 alpha_mix =  0.700 |ddv_scf|^2 =  2.989E-11

      iter #   4 total cpu time :    76.9 secs   av.it.:   8.0
      thresh= 5.468E-07 alpha_mix =  0.700 |ddv_scf|^2 =  1.463E-14

      iter #   5 total cpu time :    78.7 secs   av.it.:   9.0
      thresh= 1.210E-08 alpha_mix =  0.700 |ddv_scf|^2 =  7.652E-16

      iter #   6 total cpu time :    80.4 secs   av.it.:   8.8
      thresh= 2.766E-09 alpha_mix =  0.700 |ddv_scf|^2 =  1.501E-18

     End of self-consistent calculation

     Convergence has been achieved 

     Number of q in the star =    1
     List of q in the star:
          1   0.000000000   0.000000000  -0.193607630

     Diagonalizing the dynamical matrix

     q = (    0.000000000   0.000000000  -0.193607630 ) 

 **************************************************************************
     freq (    1) =       3.921647 [THz] =     130.812070 [cm-1]
     freq (    2) =       3.921647 [THz] =     130.812070 [cm-1]
     freq (    3) =       3.921647 [THz] =     130.812070 [cm-1]
     freq (    4) =       3.921647 [THz] =     130.812070 [cm-1]
     freq (    5) =       6.164295 [THz] =     205.618739 [cm-1]
     freq (    6) =       6.164295 [THz] =     205.618739 [cm-1]
     freq (    7) =      26.696872 [THz] =     890.511802 [cm-1]
     freq (    8) =      26.696872 [THz] =     890.511802 [cm-1]
     freq (    9) =      47.021008 [THz] =    1568.452011 [cm-1]
     freq (   10) =      47.021008 [THz] =    1568.452011 [cm-1]
     freq (   11) =      47.021008 [THz] =    1568.452011 [cm-1]
     freq (   12) =      47.021008 [THz] =    1568.452011 [cm-1]
 **************************************************************************

     Calculation of q =    0.0000000   0.2886751   0.0000000

     Parallelization info
     --------------------
     sticks:   dense  smooth     PW     G-vecs:    dense   smooth      PW
     Min          43      30     12                 1516      823     218
     Max          45      32     13                 1521      825     225
     Sum         265     187     73                 9111     4943    1323

     Using Slab Decomposition


     Title: 
     Graphite                                                                   


     bravais-lattice index     =            4
     lattice parameter (alat)  =       4.6463  a.u.
     unit-cell volume          =     224.3370 (a.u.)^3
     number of atoms/cell      =            4
     number of atomic types    =            1
     number of electrons       =        16.00
     number of Kohn-Sham states=            8
     kinetic-energy cutoff     =      30.0000  Ry
     charge density cutoff     =     180.0000  Ry
     Exchange-correlation= PBE
                           (   1   4   3   4   0   0   0)

     celldm(1)=   4.646303  celldm(2)=   0.000000  celldm(3)=   2.582543
     celldm(4)=   0.000000  celldm(5)=   0.000000  celldm(6)=   0.000000

     crystal axes: (cart. coord. in units of alat)
               a(1) = (   1.000000   0.000000   0.000000 )  
               a(2) = (  -0.500000   0.866025   0.000000 )  
               a(3) = (   0.000000   0.000000   2.582543 )  

     reciprocal axes: (cart. coord. in units 2 pi/alat)
               b(1) = (  1.000000  0.577350 -0.000000 )  
               b(2) = (  0.000000  1.154701  0.000000 )  
               b(3) = (  0.000000 -0.000000  0.387215 )  


     PseudoPot. # 1 for C  read from file:
     /home/bonacc_m/Codes/q-e/pseudo/C.pbe-rrkjus.UPF
     MD5 check sum: c9ac5a99bc85b198593446162950cd17
     Pseudo is Ultrasoft, Zval =  4.0
     Generated by new atomic code, or converted to UPF format
     Using radial grid of  627 points,  4 beta functions with: 
                l(1) =   0
                l(2) =   0
                l(3) =   1
                l(4) =   1
     Q(r) pseudized with 0 coefficients 


     atomic species   valence    mass     pseudopotential
        C              4.00    12.00000     C ( 1.00)

     24 Sym. Ops., with inversion, found



   Cartesian axes

     site n.     atom                  positions (alat units)
         1           C   tau(   1) = (   0.0000000   0.0000000   0.0000000  )
         2           C   tau(   2) = (  -0.0000000   0.5773503   0.0000000  )
         3           C   tau(   3) = (   0.0000000   0.0000000   1.2912714  )
         4           C   tau(   4) = (   0.5000000   0.2886751   1.2912714  )

     number of k points=   400

     Number of k-points >= 100: set verbosity='high' to print them.

     Dense  grid:     9111 G-vectors     FFT dimensions: (  20,  20,  54)

     Smooth grid:     4943 G-vectors     FFT dimensions: (  18,  18,  48)

     Estimated max dynamical RAM per process >       1.96 MB

     Estimated total dynamical RAM >      11.75 MB

     The potential is recalculated from file :
     /home/bonacc_m/Documents/phonons/example16/TMP_graphite/_ph0/graphite.save/charge-density

     Starting wfcs are   16 atomic wfcs

     Band Structure Calculation
     Davidson diagonalization with overlap

     ethr =  6.25E-11,  avg # of iterations = 10.4

     total cpu time spent up to now is        6.3 secs

     End of band structure calculation

     Number of k-points >= 100: set verbosity='high' to print the bands.

     highest occupied level (ev):     7.5159

     Writing config to output data dir /home/bonacc_m/Documents/phonons/example16/TMP_graphite/_ph0/graphite.save/

     Graphite                                                                   

     bravais-lattice index     =            4
     lattice parameter (alat)  =       4.6463  a.u.
     unit-cell volume          =     224.3370 (a.u.)^3
     number of atoms/cell      =            4
     number of atomic types    =            1
     kinetic-energy cut-off    =      30.0000  Ry
     charge density cut-off    =     180.0000  Ry
     convergence threshold     =      1.0E-16
     beta                      =       0.7000
     number of iterations used =            4
     Exchange-correlation= PBE
                           (   1   4   3   4   0   0   0)


     celldm(1)=    4.64630  celldm(2)=    0.00000  celldm(3)=    2.58254
     celldm(4)=    0.00000  celldm(5)=    0.00000  celldm(6)=    0.00000

     crystal axes: (cart. coord. in units of alat)
               a(1) = (  1.0000  0.0000  0.0000 )  
               a(2) = ( -0.5000  0.8660  0.0000 )  
               a(3) = (  0.0000  0.0000  2.5825 )  

     reciprocal axes: (cart. coord. in units 2 pi/alat)
               b(1) = (  1.0000  0.5774 -0.0000 )  
               b(2) = (  0.0000  1.1547  0.0000 )  
               b(3) = (  0.0000 -0.0000  0.3872 )  


     Atoms inside the unit cell: 

     Cartesian axes

     site n.  atom      mass           positions (alat units)
        1     C   12.0000   tau(    1) = (    0.00000    0.00000    0.00000  )
        2     C   12.0000   tau(    2) = (   -0.00000    0.57735    0.00000  )
        3     C   12.0000   tau(    3) = (    0.00000    0.00000    1.29127  )
        4     C   12.0000   tau(    4) = (    0.50000    0.28868    1.29127  )

     Computing dynamical matrix for 
                    q = (   0.0000000   0.2886751   0.0000000 )

      4 Sym.Ops. (no q -> -q+G )


     G cutoff =   98.4301  (   1521 G-vectors)     FFT grid: ( 20, 20, 54)
     G cutoff =   65.6201  (    825 G-vectors)  smooth grid: ( 18, 18, 48)
     number of k points=   400

     PseudoPot. # 1 for C  read from file:
     /home/bonacc_m/Codes/q-e/pseudo/C.pbe-rrkjus.UPF
     MD5 check sum: c9ac5a99bc85b198593446162950cd17
     Pseudo is Ultrasoft, Zval =  4.0
     Generated by new atomic code, or converted to UPF format
     Using radial grid of  627 points,  4 beta functions with: 
                l(1) =   0
                l(2) =   0
                l(3) =   1
                l(4) =   1
     Q(r) pseudized with 0 coefficients 


     Mode symmetry, C_2v (mm2)  point group:


     Atomic displacements:
     There are   12 irreducible representations

     Representation     1      1 modes -  To be done

     Representation     2      1 modes -  To be done

     Representation     3      1 modes -  To be done

     Representation     4      1 modes -  To be done

     Representation     5      1 modes -  To be done

     Representation     6      1 modes -  To be done

     Representation     7      1 modes -  To be done

     Representation     8      1 modes -  To be done

     Representation     9      1 modes -  To be done

     Representation    10      1 modes -  To be done

     Representation    11      1 modes -  To be done

     Representation    12      1 modes -  To be done



     Alpha used in Ewald sum =   1.8000
     PHONON       :   1m23.17s CPU   1m27.28s WALL



     Representation #   1 mode #   1

     Self-consistent Calculation

      iter #   1 total cpu time :    88.9 secs   av.it.:   5.3
      thresh= 1.000E-02 alpha_mix =  0.700 |ddv_scf|^2 =  4.433E-04

      iter #   2 total cpu time :    90.8 secs   av.it.:   7.4
      thresh= 2.105E-03 alpha_mix =  0.700 |ddv_scf|^2 =  3.772E-03

      iter #   3 total cpu time :    92.6 secs   av.it.:   5.9
      thresh= 6.141E-03 alpha_mix =  0.700 |ddv_scf|^2 =  9.546E-06

      iter #   4 total cpu time :    94.6 secs   av.it.:   7.1
      thresh= 3.090E-04 alpha_mix =  0.700 |ddv_scf|^2 =  1.670E-07

      iter #   5 total cpu time :    96.6 secs   av.it.:   7.6
      thresh= 4.087E-05 alpha_mix =  0.700 |ddv_scf|^2 =  1.134E-08

      iter #   6 total cpu time :    98.6 secs   av.it.:   7.9
      thresh= 1.065E-05 alpha_mix =  0.700 |ddv_scf|^2 =  1.959E-10

      iter #   7 total cpu time :   100.5 secs   av.it.:   7.6
      thresh= 1.400E-06 alpha_mix =  0.700 |ddv_scf|^2 =  5.971E-11

      iter #   8 total cpu time :   102.5 secs   av.it.:   7.0
      thresh= 7.727E-07 alpha_mix =  0.700 |ddv_scf|^2 =  1.722E-10

      iter #   9 total cpu time :   104.2 secs   av.it.:   6.1
      thresh= 1.312E-06 alpha_mix =  0.700 |ddv_scf|^2 =  3.534E-11

      iter #  10 total cpu time :   105.9 secs   av.it.:   6.3
      thresh= 5.944E-07 alpha_mix =  0.700 |ddv_scf|^2 =  1.052E-12

      iter #  11 total cpu time :   107.8 secs   av.it.:   7.3
      thresh= 1.026E-07 alpha_mix =  0.700 |ddv_scf|^2 =  2.395E-13

      iter #  12 total cpu time :   109.9 secs   av.it.:   7.9
      thresh= 4.894E-08 alpha_mix =  0.700 |ddv_scf|^2 =  2.463E-14

      iter #  13 total cpu time :   111.9 secs   av.it.:   7.8
      thresh= 1.569E-08 alpha_mix =  0.700 |ddv_scf|^2 =  7.146E-16

      iter #  14 total cpu time :   113.8 secs   av.it.:   7.4
      thresh= 2.673E-09 alpha_mix =  0.700 |ddv_scf|^2 =  8.948E-16

      iter #  15 total cpu time :   115.6 secs   av.it.:   6.5
      thresh= 2.991E-09 alpha_mix =  0.700 |ddv_scf|^2 =  1.689E-15

      iter #  16 total cpu time :   117.2 secs   av.it.:   6.1
      thresh= 4.109E-09 alpha_mix =  0.700 |ddv_scf|^2 =  1.572E-16

      iter #  17 total cpu time :   119.0 secs   av.it.:   6.8
      thresh= 1.254E-09 alpha_mix =  0.700 |ddv_scf|^2 =  8.171E-18

     End of self-consistent calculation

     Convergence has been achieved 


     Representation #   2 mode #   2

     Self-consistent Calculation

      iter #   1 total cpu time :   120.7 secs   av.it.:   5.3
      thresh= 1.000E-02 alpha_mix =  0.700 |ddv_scf|^2 =  4.350E-04

      iter #   2 total cpu time :   122.7 secs   av.it.:   7.4
      thresh= 2.086E-03 alpha_mix =  0.700 |ddv_scf|^2 =  3.692E-03

      iter #   3 total cpu time :   124.4 secs   av.it.:   5.9
      thresh= 6.076E-03 alpha_mix =  0.700 |ddv_scf|^2 =  9.466E-06

      iter #   4 total cpu time :   126.4 secs   av.it.:   7.2
      thresh= 3.077E-04 alpha_mix =  0.700 |ddv_scf|^2 =  1.693E-07

      iter #   5 total cpu time :   128.4 secs   av.it.:   7.5
      thresh= 4.115E-05 alpha_mix =  0.700 |ddv_scf|^2 =  1.081E-08

      iter #   6 total cpu time :   130.4 secs   av.it.:   7.9
      thresh= 1.040E-05 alpha_mix =  0.700 |ddv_scf|^2 =  1.528E-10

      iter #   7 total cpu time :   132.3 secs   av.it.:   7.6
      thresh= 1.236E-06 alpha_mix =  0.700 |ddv_scf|^2 =  1.926E-11

      iter #   8 total cpu time :   134.2 secs   av.it.:   7.3
      thresh= 4.388E-07 alpha_mix =  0.700 |ddv_scf|^2 =  2.189E-11

      iter #   9 total cpu time :   136.0 secs   av.it.:   6.7
      thresh= 4.678E-07 alpha_mix =  0.700 |ddv_scf|^2 =  2.317E-11

      iter #  10 total cpu time :   137.8 secs   av.it.:   6.2
      thresh= 4.814E-07 alpha_mix =  0.700 |ddv_scf|^2 =  3.659E-13

      iter #  11 total cpu time :   139.8 secs   av.it.:   7.2
      thresh= 6.049E-08 alpha_mix =  0.700 |ddv_scf|^2 =  8.950E-14

      iter #  12 total cpu time :   141.9 secs   av.it.:   7.8
      thresh= 2.992E-08 alpha_mix =  0.700 |ddv_scf|^2 =  9.826E-15

      iter #  13 total cpu time :   143.9 secs   av.it.:   7.8
      thresh= 9.913E-09 alpha_mix =  0.700 |ddv_scf|^2 =  3.230E-16

      iter #  14 total cpu time :   145.9 secs   av.it.:   7.4
      thresh= 1.797E-09 alpha_mix =  0.700 |ddv_scf|^2 =  4.390E-16

      iter #  15 total cpu time :   147.6 secs   av.it.:   6.7
      thresh= 2.095E-09 alpha_mix =  0.700 |ddv_scf|^2 =  1.693E-17

     End of self-consistent calculation

     Convergence has been achieved 


     Representation #   3 mode #   3

     Self-consistent Calculation

      iter #   1 total cpu time :   149.3 secs   av.it.:   5.3
      thresh= 1.000E-02 alpha_mix =  0.700 |ddv_scf|^2 =  4.350E-04

      iter #   2 total cpu time :   151.3 secs   av.it.:   7.4
      thresh= 2.086E-03 alpha_mix =  0.700 |ddv_scf|^2 =  3.692E-03

      iter #   3 total cpu time :   152.9 secs   av.it.:   5.9
      thresh= 6.076E-03 alpha_mix =  0.700 |ddv_scf|^2 =  9.466E-06

      iter #   4 total cpu time :   154.8 secs   av.it.:   7.2
      thresh= 3.077E-04 alpha_mix =  0.700 |ddv_scf|^2 =  1.693E-07

      iter #   5 total cpu time :   156.7 secs   av.it.:   7.5
      thresh= 4.115E-05 alpha_mix =  0.700 |ddv_scf|^2 =  1.081E-08

      iter #   6 total cpu time :   158.7 secs   av.it.:   7.9
      thresh= 1.040E-05 alpha_mix =  0.700 |ddv_scf|^2 =  1.528E-10

      iter #   7 total cpu time :   160.7 secs   av.it.:   7.6
      thresh= 1.236E-06 alpha_mix =  0.700 |ddv_scf|^2 =  1.926E-11

      iter #   8 total cpu time :   162.6 secs   av.it.:   7.3
      thresh= 4.388E-07 alpha_mix =  0.700 |ddv_scf|^2 =  2.189E-11

      iter #   9 total cpu time :   164.4 secs   av.it.:   6.7
      thresh= 4.678E-07 alpha_mix =  0.700 |ddv_scf|^2 =  2.317E-11

      iter #  10 total cpu time :   166.1 secs   av.it.:   6.2
      thresh= 4.814E-07 alpha_mix =  0.700 |ddv_scf|^2 =  3.659E-13

      iter #  11 total cpu time :   168.0 secs   av.it.:   7.2
      thresh= 6.049E-08 alpha_mix =  0.700 |ddv_scf|^2 =  8.950E-14

      iter #  12 total cpu time :   170.0 secs   av.it.:   7.8
      thresh= 2.992E-08 alpha_mix =  0.700 |ddv_scf|^2 =  9.826E-15

      iter #  13 total cpu time :   172.0 secs   av.it.:   7.8
      thresh= 9.913E-09 alpha_mix =  0.700 |ddv_scf|^2 =  3.230E-16

      iter #  14 total cpu time :   173.9 secs   av.it.:   7.4
      thresh= 1.797E-09 alpha_mix =  0.700 |ddv_scf|^2 =  4.390E-16

      iter #  15 total cpu time :   175.6 secs   av.it.:   6.7
      thresh= 2.095E-09 alpha_mix =  0.700 |ddv_scf|^2 =  1.693E-17

     End of self-consistent calculation

     Convergence has been achieved 


     Representation #   4 mode #   4

     Self-consistent Calculation

      iter #   1 total cpu time :   177.3 secs   av.it.:   5.3
      thresh= 1.000E-02 alpha_mix =  0.700 |ddv_scf|^2 =  4.433E-04

      iter #   2 total cpu time :   179.2 secs   av.it.:   7.4
      thresh= 2.105E-03 alpha_mix =  0.700 |ddv_scf|^2 =  3.772E-03

      iter #   3 total cpu time :   180.8 secs   av.it.:   5.9
      thresh= 6.141E-03 alpha_mix =  0.700 |ddv_scf|^2 =  9.546E-06

      iter #   4 total cpu time :   182.7 secs   av.it.:   7.1
      thresh= 3.090E-04 alpha_mix =  0.700 |ddv_scf|^2 =  1.670E-07

      iter #   5 total cpu time :   184.6 secs   av.it.:   7.6
      thresh= 4.087E-05 alpha_mix =  0.700 |ddv_scf|^2 =  1.134E-08

      iter #   6 total cpu time :   186.6 secs   av.it.:   7.9
      thresh= 1.065E-05 alpha_mix =  0.700 |ddv_scf|^2 =  1.959E-10

      iter #   7 total cpu time :   188.5 secs   av.it.:   7.6
      thresh= 1.400E-06 alpha_mix =  0.700 |ddv_scf|^2 =  5.971E-11

      iter #   8 total cpu time :   190.4 secs   av.it.:   7.0
      thresh= 7.727E-07 alpha_mix =  0.700 |ddv_scf|^2 =  1.722E-10

      iter #   9 total cpu time :   192.0 secs   av.it.:   6.1
      thresh= 1.312E-06 alpha_mix =  0.700 |ddv_scf|^2 =  3.534E-11

      iter #  10 total cpu time :   193.8 secs   av.it.:   6.3
      thresh= 5.944E-07 alpha_mix =  0.700 |ddv_scf|^2 =  1.052E-12

      iter #  11 total cpu time :   195.7 secs   av.it.:   7.3
      thresh= 1.026E-07 alpha_mix =  0.700 |ddv_scf|^2 =  2.395E-13

      iter #  12 total cpu time :   197.8 secs   av.it.:   7.9
      thresh= 4.894E-08 alpha_mix =  0.700 |ddv_scf|^2 =  2.463E-14

      iter #  13 total cpu time :   199.8 secs   av.it.:   7.8
      thresh= 1.569E-08 alpha_mix =  0.700 |ddv_scf|^2 =  7.146E-16

      iter #  14 total cpu time :   201.8 secs   av.it.:   7.4
      thresh= 2.673E-09 alpha_mix =  0.700 |ddv_scf|^2 =  8.948E-16

      iter #  15 total cpu time :   203.6 secs   av.it.:   6.5
      thresh= 2.991E-09 alpha_mix =  0.700 |ddv_scf|^2 =  1.689E-15

      iter #  16 total cpu time :   205.2 secs   av.it.:   6.1
      thresh= 4.109E-09 alpha_mix =  0.700 |ddv_scf|^2 =  1.572E-16

      iter #  17 total cpu time :   207.1 secs   av.it.:   6.8
      thresh= 1.254E-09 alpha_mix =  0.700 |ddv_scf|^2 =  8.171E-18

     End of self-consistent calculation

     Convergence has been achieved 


     Representation #   5 mode #   5

     Self-consistent Calculation

      iter #   1 total cpu time :   208.6 secs   av.it.:   4.9
      thresh= 1.000E-02 alpha_mix =  0.700 |ddv_scf|^2 =  1.690E-06

      iter #   2 total cpu time :   210.7 secs   av.it.:   8.1
      thresh= 1.300E-04 alpha_mix =  0.700 |ddv_scf|^2 =  1.161E-08

      iter #   3 total cpu time :   212.6 secs   av.it.:   7.5
      thresh= 1.078E-05 alpha_mix =  0.700 |ddv_scf|^2 =  9.033E-10

      iter #   4 total cpu time :   214.4 secs   av.it.:   7.0
      thresh= 3.005E-06 alpha_mix =  0.700 |ddv_scf|^2 =  3.320E-12

      iter #   5 total cpu time :   216.4 secs   av.it.:   7.7
      thresh= 1.822E-07 alpha_mix =  0.700 |ddv_scf|^2 =  1.339E-14

      iter #   6 total cpu time :   218.3 secs   av.it.:   7.2
      thresh= 1.157E-08 alpha_mix =  0.700 |ddv_scf|^2 =  5.079E-16

      iter #   7 total cpu time :   220.2 secs   av.it.:   7.2
      thresh= 2.254E-09 alpha_mix =  0.700 |ddv_scf|^2 =  2.557E-18

     End of self-consistent calculation

     Convergence has been achieved 


     Representation #   6 mode #   6

     Self-consistent Calculation

      iter #   1 total cpu time :   221.8 secs   av.it.:   4.9
      thresh= 1.000E-02 alpha_mix =  0.700 |ddv_scf|^2 =  1.659E-06

      iter #   2 total cpu time :   223.9 secs   av.it.:   8.1
      thresh= 1.288E-04 alpha_mix =  0.700 |ddv_scf|^2 =  9.253E-09

      iter #   3 total cpu time :   225.9 secs   av.it.:   7.7
      thresh= 9.619E-06 alpha_mix =  0.700 |ddv_scf|^2 =  6.740E-10

      iter #   4 total cpu time :   227.7 secs   av.it.:   7.0
      thresh= 2.596E-06 alpha_mix =  0.700 |ddv_scf|^2 =  3.500E-12

      iter #   5 total cpu time :   229.7 secs   av.it.:   7.7
      thresh= 1.871E-07 alpha_mix =  0.700 |ddv_scf|^2 =  1.250E-14

      iter #   6 total cpu time :   231.5 secs   av.it.:   7.2
      thresh= 1.118E-08 alpha_mix =  0.700 |ddv_scf|^2 =  4.957E-16

      iter #   7 total cpu time :   233.4 secs   av.it.:   7.2
      thresh= 2.226E-09 alpha_mix =  0.700 |ddv_scf|^2 =  2.349E-18

     End of self-consistent calculation

     Convergence has been achieved 


     Representation #   7 mode #   7

     Self-consistent Calculation

      iter #   1 total cpu time :   235.0 secs   av.it.:   4.9
      thresh= 1.000E-02 alpha_mix =  0.700 |ddv_scf|^2 =  1.690E-06

      iter #   2 total cpu time :   237.1 secs   av.it.:   8.1
      thresh= 1.300E-04 alpha_mix =  0.700 |ddv_scf|^2 =  1.161E-08

      iter #   3 total cpu time :   239.0 secs   av.it.:   7.5
      thresh= 1.078E-05 alpha_mix =  0.700 |ddv_scf|^2 =  9.033E-10

      iter #   4 total cpu time :   240.9 secs   av.it.:   7.0
      thresh= 3.005E-06 alpha_mix =  0.700 |ddv_scf|^2 =  3.320E-12

      iter #   5 total cpu time :   243.0 secs   av.it.:   7.7
      thresh= 1.822E-07 alpha_mix =  0.700 |ddv_scf|^2 =  1.339E-14

      iter #   6 total cpu time :   244.9 secs   av.it.:   7.2
      thresh= 1.157E-08 alpha_mix =  0.700 |ddv_scf|^2 =  5.079E-16

      iter #   7 total cpu time :   246.8 secs   av.it.:   7.2
      thresh= 2.254E-09 alpha_mix =  0.700 |ddv_scf|^2 =  2.557E-18

     End of self-consistent calculation

     Convergence has been achieved 


     Representation #   8 mode #   8

     Self-consistent Calculation

      iter #   1 total cpu time :   248.3 secs   av.it.:   4.9
      thresh= 1.000E-02 alpha_mix =  0.700 |ddv_scf|^2 =  1.659E-06

      iter #   2 total cpu time :   250.4 secs   av.it.:   8.1
      thresh= 1.288E-04 alpha_mix =  0.700 |ddv_scf|^2 =  9.253E-09

      iter #   3 total cpu time :   252.4 secs   av.it.:   7.7
      thresh= 9.619E-06 alpha_mix =  0.700 |ddv_scf|^2 =  6.740E-10

      iter #   4 total cpu time :   254.2 secs   av.it.:   7.0
      thresh= 2.596E-06 alpha_mix =  0.700 |ddv_scf|^2 =  3.500E-12

      iter #   5 total cpu time :   256.2 secs   av.it.:   7.7
      thresh= 1.871E-07 alpha_mix =  0.700 |ddv_scf|^2 =  1.250E-14

      iter #   6 total cpu time :   258.0 secs   av.it.:   7.2
      thresh= 1.118E-08 alpha_mix =  0.700 |ddv_scf|^2 =  4.957E-16

      iter #   7 total cpu time :   259.9 secs   av.it.:   7.2
      thresh= 2.226E-09 alpha_mix =  0.700 |ddv_scf|^2 =  2.349E-18

     End of self-consistent calculation

     Convergence has been achieved 


     Representation #   9 mode #   9

     Self-consistent Calculation

      iter #   1 total cpu time :   261.6 secs   av.it.:   5.2
      thresh= 1.000E-02 alpha_mix =  0.700 |ddv_scf|^2 =  2.211E-05

      iter #   2 total cpu time :   263.6 secs   av.it.:   7.8
      thresh= 4.702E-04 alpha_mix =  0.700 |ddv_scf|^2 =  7.305E-06

      iter #   3 total cpu time :   265.5 secs   av.it.:   7.1
      thresh= 2.703E-04 alpha_mix =  0.700 |ddv_scf|^2 =  7.642E-09

      iter #   4 total cpu time :   267.5 secs   av.it.:   7.7
      thresh= 8.742E-06 alpha_mix =  0.700 |ddv_scf|^2 =  2.887E-10

      iter #   5 total cpu time :   269.4 secs   av.it.:   7.2
      thresh= 1.699E-06 alpha_mix =  0.700 |ddv_scf|^2 =  5.656E-12

      iter #   6 total cpu time :   271.2 secs   av.it.:   7.1
      thresh= 2.378E-07 alpha_mix =  0.700 |ddv_scf|^2 =  7.444E-14

      iter #   7 total cpu time :   273.0 secs   av.it.:   6.8
      thresh= 2.728E-08 alpha_mix =  0.700 |ddv_scf|^2 =  3.527E-15

      iter #   8 total cpu time :   274.8 secs   av.it.:   6.9
      thresh= 5.939E-09 alpha_mix =  0.700 |ddv_scf|^2 =  6.331E-17

     End of self-consistent calculation

     Convergence has been achieved 


     Representation #  10 mode #  10

     Self-consistent Calculation

      iter #   1 total cpu time :   276.5 secs   av.it.:   5.1
      thresh= 1.000E-02 alpha_mix =  0.700 |ddv_scf|^2 =  2.216E-05

      iter #   2 total cpu time :   278.5 secs   av.it.:   7.8
      thresh= 4.707E-04 alpha_mix =  0.700 |ddv_scf|^2 =  7.266E-06

      iter #   3 total cpu time :   280.4 secs   av.it.:   7.1
      thresh= 2.695E-04 alpha_mix =  0.700 |ddv_scf|^2 =  8.017E-09

      iter #   4 total cpu time :   282.4 secs   av.it.:   7.7
      thresh= 8.954E-06 alpha_mix =  0.700 |ddv_scf|^2 =  2.715E-10

      iter #   5 total cpu time :   284.3 secs   av.it.:   7.1
      thresh= 1.648E-06 alpha_mix =  0.700 |ddv_scf|^2 =  5.323E-12

      iter #   6 total cpu time :   286.1 secs   av.it.:   7.1
      thresh= 2.307E-07 alpha_mix =  0.700 |ddv_scf|^2 =  7.351E-14

      iter #   7 total cpu time :   287.9 secs   av.it.:   6.8
      thresh= 2.711E-08 alpha_mix =  0.700 |ddv_scf|^2 =  3.380E-15

      iter #   8 total cpu time :   289.7 secs   av.it.:   6.8
      thresh= 5.814E-09 alpha_mix =  0.700 |ddv_scf|^2 =  6.203E-17

     End of self-consistent calculation

     Convergence has been achieved 


     Representation #  11 mode #  11

     Self-consistent Calculation

      iter #   1 total cpu time :   291.3 secs   av.it.:   5.2
      thresh= 1.000E-02 alpha_mix =  0.700 |ddv_scf|^2 =  2.211E-05

      iter #   2 total cpu time :   293.4 secs   av.it.:   7.8
      thresh= 4.702E-04 alpha_mix =  0.700 |ddv_scf|^2 =  7.305E-06

      iter #   3 total cpu time :   295.2 secs   av.it.:   7.1
      thresh= 2.703E-04 alpha_mix =  0.700 |ddv_scf|^2 =  7.642E-09

      iter #   4 total cpu time :   297.2 secs   av.it.:   7.7
      thresh= 8.742E-06 alpha_mix =  0.700 |ddv_scf|^2 =  2.887E-10

      iter #   5 total cpu time :   299.1 secs   av.it.:   7.2
      thresh= 1.699E-06 alpha_mix =  0.700 |ddv_scf|^2 =  5.656E-12

      iter #   6 total cpu time :   301.0 secs   av.it.:   7.1
      thresh= 2.378E-07 alpha_mix =  0.700 |ddv_scf|^2 =  7.444E-14

      iter #   7 total cpu time :   302.8 secs   av.it.:   6.8
      thresh= 2.728E-08 alpha_mix =  0.700 |ddv_scf|^2 =  3.527E-15

      iter #   8 total cpu time :   304.5 secs   av.it.:   6.9
      thresh= 5.939E-09 alpha_mix =  0.700 |ddv_scf|^2 =  6.331E-17

     End of self-consistent calculation

     Convergence has been achieved 


     Representation #  12 mode #  12

     Self-consistent Calculation

      iter #   1 total cpu time :   306.1 secs   av.it.:   5.1
      thresh= 1.000E-02 alpha_mix =  0.700 |ddv_scf|^2 =  2.216E-05

      iter #   2 total cpu time :   308.1 secs   av.it.:   7.8
      thresh= 4.707E-04 alpha_mix =  0.700 |ddv_scf|^2 =  7.266E-06

      iter #   3 total cpu time :   310.0 secs   av.it.:   7.1
      thresh= 2.695E-04 alpha_mix =  0.700 |ddv_scf|^2 =  8.017E-09

      iter #   4 total cpu time :   312.0 secs   av.it.:   7.7
      thresh= 8.954E-06 alpha_mix =  0.700 |ddv_scf|^2 =  2.715E-10

      iter #   5 total cpu time :   313.9 secs   av.it.:   7.1
      thresh= 1.648E-06 alpha_mix =  0.700 |ddv_scf|^2 =  5.323E-12

      iter #   6 total cpu time :   315.8 secs   av.it.:   7.1
      thresh= 2.307E-07 alpha_mix =  0.700 |ddv_scf|^2 =  7.351E-14

      iter #   7 total cpu time :   317.6 secs   av.it.:   6.8
      thresh= 2.711E-08 alpha_mix =  0.700 |ddv_scf|^2 =  3.380E-15

      iter #   8 total cpu time :   319.4 secs   av.it.:   6.8
      thresh= 5.814E-09 alpha_mix =  0.700 |ddv_scf|^2 =  6.203E-17

     End of self-consistent calculation

     Convergence has been achieved 

     Number of q in the star =    6
     List of q in the star:
          1   0.000000000   0.288675135   0.000000000
          2   0.000000000  -0.288675135   0.000000000
          3  -0.250000000  -0.144337567   0.000000000
          4   0.250000000  -0.144337567   0.000000000
          5  -0.250000000   0.144337567   0.000000000
          6   0.250000000   0.144337567   0.000000000

     Diagonalizing the dynamical matrix

     q = (    0.000000000   0.288675135   0.000000000 ) 

 **************************************************************************
     freq (    1) =       7.000059 [THz] =     233.496818 [cm-1]
     freq (    2) =       8.575612 [THz] =     286.051611 [cm-1]
     freq (    3) =      14.394608 [THz] =     480.152451 [cm-1]
     freq (    4) =      14.427454 [THz] =     481.248061 [cm-1]
     freq (    5) =      23.909806 [THz] =     797.545273 [cm-1]
     freq (    6) =      24.046418 [THz] =     802.102153 [cm-1]
     freq (    7) =      25.067835 [THz] =     836.172975 [cm-1]
     freq (    8) =      25.215648 [THz] =     841.103464 [cm-1]
     freq (    9) =      44.257967 [THz] =    1476.286874 [cm-1]
     freq (   10) =      44.321604 [THz] =    1478.409590 [cm-1]
     freq (   11) =      47.675863 [THz] =    1590.295604 [cm-1]
     freq (   12) =      47.775822 [THz] =    1593.629879 [cm-1]
 **************************************************************************

     Mode symmetry, C_2v (mm2)  point group:

     freq (   1-   1) =        233.5  [cm-1]   --> B_2  D_4  S_4      
     freq (   2-   2) =        286.1  [cm-1]   --> B_2  D_4  S_4      
     freq (   3-   3) =        480.2  [cm-1]   --> B_1  D_3  S_3      
     freq (   4-   4) =        481.2  [cm-1]   --> B_1  D_3  S_3      
     freq (   5-   5) =        797.5  [cm-1]   --> A_1  D_1  S_1      
     freq (   6-   6) =        802.1  [cm-1]   --> A_1  D_1  S_1      
     freq (   7-   7) =        836.2  [cm-1]   --> B_2  D_4  S_4      
     freq (   8-   8) =        841.1  [cm-1]   --> B_2  D_4  S_4      
     freq (   9-   9) =       1476.3  [cm-1]   --> B_1  D_3  S_3      
     freq (  10-  10) =       1478.4  [cm-1]   --> B_1  D_3  S_3      
     freq (  11-  11) =       1590.3  [cm-1]   --> A_1  D_1  S_1      
     freq (  12-  12) =       1593.6  [cm-1]   --> A_1  D_1  S_1      

     Calculation of q =    0.0000000   0.2886751  -0.1936076

     Parallelization info
[...]
         2           C   tau(   2) = (  -0.0000000   0.5773503   0.0000000  )
         3           C   tau(   3) = (   0.0000000   0.0000000   1.2912714  )
         4           C   tau(   4) = (   0.5000000   0.2886751   1.2912714  )

     number of k points=   400

     Number of k-points >= 100: set verbosity='high' to print them.

     Dense  grid:     9111 G-vectors     FFT dimensions: (  20,  20,  54)

     Smooth grid:     4943 G-vectors     FFT dimensions: (  18,  18,  48)

     Estimated max dynamical RAM per process >       1.97 MB

     Estimated total dynamical RAM >      11.80 MB

     The potential is recalculated from file :
     /home/bonacc_m/Documents/phonons/example16/TMP_graphite/_ph0/graphite.save/charge-density

     Starting wfcs are   16 atomic wfcs

     Band Structure Calculation
     Davidson diagonalization with overlap

     ethr =  6.25E-11,  avg # of iterations = 10.5

     total cpu time spent up to now is       32.1 secs

     End of band structure calculation

     Number of k-points >= 100: set verbosity='high' to print the bands.

     highest occupied level (ev):     7.5159

     Writing config to output data dir /home/bonacc_m/Documents/phonons/example16/TMP_graphite/_ph0/graphite.save/

     Graphite                                                                   

     bravais-lattice index     =            4
     lattice parameter (alat)  =       4.6463  a.u.
     unit-cell volume          =     224.3370 (a.u.)^3
     number of atoms/cell      =            4
     number of atomic types    =            1
     kinetic-energy cut-off    =      30.0000  Ry
     charge density cut-off    =     180.0000  Ry
     convergence threshold     =      1.0E-16
     beta                      =       0.7000
     number of iterations used =            4
     Exchange-correlation= PBE
                           (   1   4   3   4   0   0   0)


     celldm(1)=    4.64630  celldm(2)=    0.00000  celldm(3)=    2.58254
     celldm(4)=    0.00000  celldm(5)=    0.00000  celldm(6)=    0.00000

     crystal axes: (cart. coord. in units of alat)
               a(1) = (  1.0000  0.0000  0.0000 )  
               a(2) = ( -0.5000  0.8660  0.0000 )  
               a(3) = (  0.0000  0.0000  2.5825 )  

     reciprocal axes: (cart. coord. in units 2 pi/alat)
               b(1) = (  1.0000  0.5774 -0.0000 )  
               b(2) = (  0.0000  1.1547  0.0000 )  
               b(3) = (  0.0000 -0.0000  0.3872 )  


     Atoms inside the unit cell: 

     Cartesian axes

     site n.  atom      mass           positions (alat units)
        1     C   12.0000   tau(    1) = (    0.00000    0.00000    0.00000  )
        2     C   12.0000   tau(    2) = (   -0.00000    0.57735    0.00000  )
        3     C   12.0000   tau(    3) = (    0.00000    0.00000    1.29127  )
        4     C   12.0000   tau(    4) = (    0.50000    0.28868    1.29127  )

     Computing dynamical matrix for 
                    q = (   0.2500000   0.4330127  -0.1936076 )

      4 Sym.Ops. (no q -> -q+G )


     G cutoff =   98.4301  (   1521 G-vectors)     FFT grid: ( 20, 20, 54)
     G cutoff =   65.6201  (    825 G-vectors)  smooth grid: ( 18, 18, 48)
     number of k points=   400

     PseudoPot. # 1 for C  read from file:
     /home/bonacc_m/Codes/q-e/pseudo/C.pbe-rrkjus.UPF
     MD5 check sum: c9ac5a99bc85b198593446162950cd17
     Pseudo is Ultrasoft, Zval =  4.0
     Generated by new atomic code, or converted to UPF format
     Using radial grid of  627 points,  4 beta functions with: 
                l(1) =   0
                l(2) =   0
                l(3) =   1
                l(4) =   1
     Q(r) pseudized with 0 coefficients 



     Atomic displacements:
     There are    6 irreducible representations

     Representation     1      2 modes -  To be done

     Representation     2      2 modes -  To be done

     Representation     3      2 modes -  To be done

     Representation     4      2 modes -  To be done

     Representation     5      2 modes -  To be done

     Representation     6      2 modes -  To be done



     Alpha used in Ewald sum =   1.8000
     PHONON       :  16m33.34s CPU  17m18.44s WALL



     Representation #   1 modes #   1   2

     Self-consistent Calculation

      iter #   1 total cpu time :  1043.9 secs   av.it.:   5.4
      thresh= 1.000E-02 alpha_mix =  0.700 |ddv_scf|^2 =  1.147E-05

      iter #   2 total cpu time :  1051.5 secs   av.it.:   9.1
      thresh= 3.387E-04 alpha_mix =  0.700 |ddv_scf|^2 =  1.724E-05

      iter #   3 total cpu time :  1058.5 secs   av.it.:   8.3
      thresh= 4.152E-04 alpha_mix =  0.700 |ddv_scf|^2 =  7.064E-08

      iter #   4 total cpu time :  1065.6 secs   av.it.:   8.5
      thresh= 2.658E-05 alpha_mix =  0.700 |ddv_scf|^2 =  5.826E-09

      iter #   5 total cpu time :  1073.1 secs   av.it.:   8.5
      thresh= 7.633E-06 alpha_mix =  0.700 |ddv_scf|^2 =  7.547E-11

      iter #   6 total cpu time :  1080.7 secs   av.it.:   8.7
      thresh= 8.688E-07 alpha_mix =  0.700 |ddv_scf|^2 =  3.666E-12

      iter #   7 total cpu time :  1088.1 secs   av.it.:   8.6
      thresh= 1.915E-07 alpha_mix =  0.700 |ddv_scf|^2 =  6.750E-14

      iter #   8 total cpu time :  1094.3 secs   av.it.:   8.9
      thresh= 2.598E-08 alpha_mix =  0.700 |ddv_scf|^2 =  6.758E-16

      iter #   9 total cpu time :  1099.2 secs   av.it.:   9.1
      thresh= 2.600E-09 alpha_mix =  0.700 |ddv_scf|^2 =  3.779E-17

     End of self-consistent calculation

     Convergence has been achieved 


     Representation #   2 modes #   3   4

     Self-consistent Calculation

      iter #   1 total cpu time :  1102.8 secs   av.it.:   5.3
      thresh= 1.000E-02 alpha_mix =  0.700 |ddv_scf|^2 =  8.190E-06

      iter #   2 total cpu time :  1107.3 secs   av.it.:   9.1
      thresh= 2.862E-04 alpha_mix =  0.700 |ddv_scf|^2 =  1.089E-05

      iter #   3 total cpu time :  1111.7 secs   av.it.:   8.3
      thresh= 3.300E-04 alpha_mix =  0.700 |ddv_scf|^2 =  9.280E-08

      iter #   4 total cpu time :  1116.0 secs   av.it.:   8.5
      thresh= 3.046E-05 alpha_mix =  0.700 |ddv_scf|^2 =  4.862E-09

      iter #   5 total cpu time :  1120.4 secs   av.it.:   8.5
      thresh= 6.973E-06 alpha_mix =  0.700 |ddv_scf|^2 =  1.042E-10

      iter #   6 total cpu time :  1124.8 secs   av.it.:   8.6
      thresh= 1.021E-06 alpha_mix =  0.700 |ddv_scf|^2 =  2.466E-12

      iter #   7 total cpu time :  1129.3 secs   av.it.:   8.6
      thresh= 1.570E-07 alpha_mix =  0.700 |ddv_scf|^2 =  3.272E-14

      iter #   8 total cpu time :  1134.1 secs   av.it.:   9.2
      thresh= 1.809E-08 alpha_mix =  0.700 |ddv_scf|^2 =  8.112E-16

      iter #   9 total cpu time :  1138.7 secs   av.it.:   9.0
      thresh= 2.848E-09 alpha_mix =  0.700 |ddv_scf|^2 =  6.253E-17

     End of self-consistent calculation

     Convergence has been achieved 


     Representation #   3 modes #   5   6

     Self-consistent Calculation

      iter #   1 total cpu time :  1142.2 secs   av.it.:   5.5
      thresh= 1.000E-02 alpha_mix =  0.700 |ddv_scf|^2 =  1.287E-06

      iter #   2 total cpu time :  1147.0 secs   av.it.:   9.4
      thresh= 1.134E-04 alpha_mix =  0.700 |ddv_scf|^2 =  1.855E-07

      iter #   3 total cpu time :  1151.8 secs   av.it.:   9.1
      thresh= 4.306E-05 alpha_mix =  0.700 |ddv_scf|^2 =  4.735E-08

      iter #   4 total cpu time :  1156.1 secs   av.it.:   8.4
      thresh= 2.176E-05 alpha_mix =  0.700 |ddv_scf|^2 =  1.188E-09

      iter #   5 total cpu time :  1160.4 secs   av.it.:   8.6
      thresh= 3.447E-06 alpha_mix =  0.700 |ddv_scf|^2 =  2.209E-10

      iter #   6 total cpu time :  1164.8 secs   av.it.:   8.5
      thresh= 1.486E-06 alpha_mix =  0.700 |ddv_scf|^2 =  3.920E-12

      iter #   7 total cpu time :  1169.5 secs   av.it.:   8.9
      thresh= 1.980E-07 alpha_mix =  0.700 |ddv_scf|^2 =  1.129E-13

      iter #   8 total cpu time :  1174.4 secs   av.it.:   9.0
      thresh= 3.360E-08 alpha_mix =  0.700 |ddv_scf|^2 =  2.493E-15

      iter #   9 total cpu time :  1178.7 secs   av.it.:   8.5
      thresh= 4.993E-09 alpha_mix =  0.700 |ddv_scf|^2 =  2.231E-16

      iter #  10 total cpu time :  1184.1 secs   av.it.:   8.7
      thresh= 1.494E-09 alpha_mix =  0.700 |ddv_scf|^2 =  4.647E-17

     End of self-consistent calculation

     Convergence has been achieved 


     Representation #   4 modes #   7   8

     Self-consistent Calculation

      iter #   1 total cpu time :  1187.8 secs   av.it.:   5.3
      thresh= 1.000E-02 alpha_mix =  0.700 |ddv_scf|^2 =  1.049E-06

      iter #   2 total cpu time :  1192.7 secs   av.it.:   9.5
      thresh= 1.024E-04 alpha_mix =  0.700 |ddv_scf|^2 =  1.845E-07

      iter #   3 total cpu time :  1197.3 secs   av.it.:   9.2
      thresh= 4.295E-05 alpha_mix =  0.700 |ddv_scf|^2 =  6.977E-08

      iter #   4 total cpu time :  1201.6 secs   av.it.:   8.5
      thresh= 2.641E-05 alpha_mix =  0.700 |ddv_scf|^2 =  1.176E-09

      iter #   5 total cpu time :  1206.1 secs   av.it.:   8.7
      thresh= 3.429E-06 alpha_mix =  0.700 |ddv_scf|^2 =  1.666E-10

      iter #   6 total cpu time :  1210.4 secs   av.it.:   8.5
      thresh= 1.291E-06 alpha_mix =  0.700 |ddv_scf|^2 =  1.548E-12

      iter #   7 total cpu time :  1214.7 secs   av.it.:   8.5
      thresh= 1.244E-07 alpha_mix =  0.700 |ddv_scf|^2 =  2.598E-14

      iter #   8 total cpu time :  1219.2 secs   av.it.:   8.7
      thresh= 1.612E-08 alpha_mix =  0.700 |ddv_scf|^2 =  1.841E-15

      iter #   9 total cpu time :  1223.6 secs   av.it.:   8.5
      thresh= 4.290E-09 alpha_mix =  0.700 |ddv_scf|^2 =  1.523E-16

      iter #  10 total cpu time :  1228.1 secs   av.it.:   8.8
      thresh= 1.234E-09 alpha_mix =  0.700 |ddv_scf|^2 =  2.539E-17

     End of self-consistent calculation

     Convergence has been achieved 


     Representation #   5 modes #   9  10

     Self-consistent Calculation

      iter #   1 total cpu time :  1231.5 secs   av.it.:   5.3
      thresh= 1.000E-02 alpha_mix =  0.700 |ddv_scf|^2 =  3.861E-06

      iter #   2 total cpu time :  1236.2 secs   av.it.:   9.1
      thresh= 1.965E-04 alpha_mix =  0.700 |ddv_scf|^2 =  3.530E-06

      iter #   3 total cpu time :  1240.4 secs   av.it.:   8.3
      thresh= 1.879E-04 alpha_mix =  0.700 |ddv_scf|^2 =  1.294E-07

      iter #   4 total cpu time :  1244.6 secs   av.it.:   8.3
      thresh= 3.598E-05 alpha_mix =  0.700 |ddv_scf|^2 =  1.243E-09

      iter #   5 total cpu time :  1250.6 secs   av.it.:   8.8
      thresh= 3.525E-06 alpha_mix =  0.700 |ddv_scf|^2 =  3.099E-10

      iter #   6 total cpu time :  1257.8 secs   av.it.:   8.5
      thresh= 1.760E-06 alpha_mix =  0.700 |ddv_scf|^2 =  4.273E-12

      iter #   7 total cpu time :  1265.5 secs   av.it.:   8.8
      thresh= 2.067E-07 alpha_mix =  0.700 |ddv_scf|^2 =  4.510E-14

      iter #   8 total cpu time :  1273.4 secs   av.it.:   9.2
      thresh= 2.124E-08 alpha_mix =  0.700 |ddv_scf|^2 =  1.215E-15

      iter #   9 total cpu time :  1281.2 secs   av.it.:   9.1
      thresh= 3.486E-09 alpha_mix =  0.700 |ddv_scf|^2 =  1.343E-16

      iter #  10 total cpu time :  1288.7 secs   av.it.:   8.9
      thresh= 1.159E-09 alpha_mix =  0.700 |ddv_scf|^2 =  5.050E-17

     End of self-consistent calculation

     Convergence has been achieved 


     Representation #   6 modes #  11  12

     Self-consistent Calculation

      iter #   1 total cpu time :  1294.3 secs   av.it.:   5.2
      thresh= 1.000E-02 alpha_mix =  0.700 |ddv_scf|^2 =  7.263E-06

      iter #   2 total cpu time :  1302.0 secs   av.it.:   9.1
      thresh= 2.695E-04 alpha_mix =  0.700 |ddv_scf|^2 =  9.756E-06

      iter #   3 total cpu time :  1309.2 secs   av.it.:   8.3
      thresh= 3.123E-04 alpha_mix =  0.700 |ddv_scf|^2 =  8.335E-08

      iter #   4 total cpu time :  1316.5 secs   av.it.:   8.6
      thresh= 2.887E-05 alpha_mix =  0.700 |ddv_scf|^2 =  5.464E-09

      iter #   5 total cpu time :  1323.8 secs   av.it.:   8.5
      thresh= 7.392E-06 alpha_mix =  0.700 |ddv_scf|^2 =  1.149E-10

      iter #   6 total cpu time :  1331.2 secs   av.it.:   8.7
      thresh= 1.072E-06 alpha_mix =  0.700 |ddv_scf|^2 =  2.963E-12

      iter #   7 total cpu time :  1338.5 secs   av.it.:   8.5
      thresh= 1.721E-07 alpha_mix =  0.700 |ddv_scf|^2 =  3.863E-14

      iter #   8 total cpu time :  1346.1 secs   av.it.:   9.1
      thresh= 1.965E-08 alpha_mix =  0.700 |ddv_scf|^2 =  6.902E-16

      iter #   9 total cpu time :  1353.8 secs   av.it.:   9.0
      thresh= 2.627E-09 alpha_mix =  0.700 |ddv_scf|^2 =  6.745E-17

     End of self-consistent calculation

     Convergence has been achieved 

     Number of q in the star =    6
     List of q in the star:
          1   0.250000000   0.433012702  -0.193607630
          2  -0.250000000  -0.433012702   0.193607630
          3   0.250000000  -0.433012702  -0.193607630
          4   0.500000000   0.000000000   0.193607630
          5  -0.500000000   0.000000000   0.193607630
          6  -0.250000000   0.433012702   0.193607630

     Diagonalizing the dynamical matrix

     q = (    0.250000000   0.433012702  -0.193607630 ) 

 **************************************************************************
     freq (    1) =      13.032877 [THz] =     434.729994 [cm-1]
     freq (    2) =      13.032877 [THz] =     434.729994 [cm-1]
     freq (    3) =      21.029358 [THz] =     701.463887 [cm-1]
     freq (    4) =      21.029358 [THz] =     701.463887 [cm-1]
     freq (    5) =      25.680919 [THz] =     856.623246 [cm-1]
     freq (    6) =      25.680919 [THz] =     856.623246 [cm-1]
     freq (    7) =      32.661135 [THz] =    1089.458203 [cm-1]
     freq (    8) =      32.661135 [THz] =    1089.458203 [cm-1]
     freq (    9) =      41.162947 [THz] =    1373.048119 [cm-1]
     freq (   10) =      41.162947 [THz] =    1373.048119 [cm-1]
     freq (   11) =      42.523574 [THz] =    1418.433735 [cm-1]
     freq (   12) =      42.523574 [THz] =    1418.433735 [cm-1]
 **************************************************************************

     init_run     :      0.16s CPU      0.17s WALL (       7 calls)
     electrons    :     30.67s CPU     31.76s WALL (       7 calls)

     Called by init_run:
     wfcinit      :      0.00s CPU      0.00s WALL (       7 calls)
     potinit      :      0.02s CPU      0.02s WALL (       7 calls)
     hinit0       :      0.10s CPU      0.10s WALL (       7 calls)

     Called by electrons:
     c_bands      :     30.67s CPU     31.76s WALL (       7 calls)
     v_of_rho     :      0.02s CPU      0.02s WALL (       8 calls)
     newd         :      0.01s CPU      0.02s WALL (       8 calls)

     Called by c_bands:
     init_us_2    :      2.82s CPU      2.95s WALL (  130584 calls)
     init_us_2:cp :      2.70s CPU      2.83s WALL (  130584 calls)
     cegterg      :     26.23s CPU     27.14s WALL (    2096 calls)

     Called by *egterg:
     cdiaghg      :      3.81s CPU      3.94s WALL (   23918 calls)
     h_psi        :    770.04s CPU    804.21s WALL ( 1203130 calls)
     s_psi        :    113.40s CPU    118.51s WALL ( 2502430 calls)
     g_psi        :      0.09s CPU      0.09s WALL (   21822 calls)

     Called by h_psi:
     h_psi:calbec :     70.10s CPU     73.20s WALL ( 1203130 calls)
     vloc_psi     :    642.71s CPU    671.22s WALL ( 1203130 calls)
     add_vuspsi   :     53.08s CPU     55.53s WALL ( 1203130 calls)

     General routines
     calbec       :    160.33s CPU    167.55s WALL ( 2728006 calls)
     fft          :      1.49s CPU      1.55s WALL (   13139 calls)
     ffts         :      1.74s CPU      1.84s WALL (   16312 calls)
     fftw         :    747.67s CPU    780.75s WALL (20024758 calls)
     interpolate  :      0.27s CPU      0.29s WALL (    1816 calls)
     davcio       :      6.75s CPU      7.17s WALL (  618032 calls)

     Parallel routines

     PHONON       :  21m36.45s CPU  22m34.03s WALL

     INITIALIZATION: 
     phq_setup    :      0.03s CPU      0.04s WALL (       8 calls)
     phq_init     :      9.63s CPU     10.00s WALL (       8 calls)

     phq_init     :      9.63s CPU     10.00s WALL (       8 calls)
     init_vloc    :      0.02s CPU      0.02s WALL (       8 calls)
     init_us_1    :      0.09s CPU      0.09s WALL (       8 calls)
     init_us_2    :      2.82s CPU      2.95s WALL (  130584 calls)
     newd         :      0.01s CPU      0.02s WALL (       8 calls)
     dvanqq       :      0.23s CPU      0.23s WALL (       8 calls)
     drho         :      8.05s CPU      8.36s WALL (       8 calls)

     DYNAMICAL MATRIX:
     dynmat0      :      0.88s CPU      0.92s WALL (       8 calls)
     phqscf       :   1243.87s CPU   1299.31s WALL (       8 calls)
     dynmatrix    :      0.01s CPU      0.02s WALL (       8 calls)

     phqscf       :   1243.87s CPU   1299.31s WALL (       8 calls)
     solve_linter :   1237.59s CPU   1292.66s WALL (      72 calls)
     drhodv       :      4.77s CPU      5.03s WALL (      72 calls)

     dynmat0      :      0.88s CPU      0.92s WALL (       8 calls)
     dynmat_us    :      0.87s CPU      0.90s WALL (       8 calls)
     d2ionq       :      0.02s CPU      0.02s WALL (       8 calls)

     dynmat_us    :      0.87s CPU      0.90s WALL (       8 calls)
     addusdynmat  :      0.00s CPU      0.00s WALL (       8 calls)

     phqscf       :   1243.87s CPU   1299.31s WALL (       8 calls)
     solve_linter :   1237.59s CPU   1292.66s WALL (      72 calls)

     solve_linter :   1237.59s CPU   1292.66s WALL (      72 calls)
     dvqpsi_us    :     14.54s CPU     15.33s WALL (   13536 calls)
     sth_kernel   :   1221.12s CPU   1275.05s WALL (     652 calls)
     apply_dpot_b :     70.51s CPU     73.81s WALL (  108768 calls)
     ortho        :     20.40s CPU     21.37s WALL (  122064 calls)
     cgsolve      :   1025.64s CPU   1070.94s WALL (  122064 calls)
     incdrhoscf   :     87.59s CPU     91.11s WALL (  122064 calls)
     addusddens   :      1.78s CPU      1.84s WALL (     717 calls)
     dv_of_drho   :      1.09s CPU      1.13s WALL (     854 calls)
     mix_pot      :      0.27s CPU      0.33s WALL (     652 calls)
     psymdvscf    :      3.39s CPU      3.47s WALL (     645 calls)
     newdq        :      1.72s CPU      1.84s WALL (     652 calls)
     adddvscf     :      7.43s CPU      7.80s WALL (  108768 calls)
     drhodvus     :      0.02s CPU      0.02s WALL (      72 calls)

     dvqpsi_us    :     14.54s CPU     15.33s WALL (   13536 calls)
     dvqpsi_us_on :      4.05s CPU      4.26s WALL (   13536 calls)

     cgsolve      :   1025.64s CPU   1070.94s WALL (  122064 calls)
     ch_psi       :    988.89s CPU   1032.64s WALL ( 1177116 calls)

     ch_psi       :    988.89s CPU   1032.64s WALL ( 1177116 calls)
     h_psi        :    770.04s CPU    804.21s WALL ( 1203130 calls)
     last         :    174.23s CPU    181.71s WALL ( 1177116 calls)

     h_psi        :    770.04s CPU    804.21s WALL ( 1203130 calls)
     add_vuspsi   :     53.08s CPU     55.53s WALL ( 1203130 calls)

     incdrhoscf   :     87.59s CPU     91.11s WALL (  122064 calls)
     addusdbec    :     10.48s CPU     10.90s WALL (  135120 calls)

     drhodvus     :      0.02s CPU      0.02s WALL (      72 calls)

      General routines
     calbec       :    160.33s CPU    167.55s WALL ( 2728006 calls)
     fft          :      1.49s CPU      1.55s WALL (   13139 calls)
     ffts         :      1.74s CPU      1.84s WALL (   16312 calls)
     fftw         :    747.67s CPU    780.75s WALL (20024758 calls)
     davcio       :      6.75s CPU      7.17s WALL (  618032 calls)
     write_rec    :      0.24s CPU      0.59s WALL (     724 calls)


     PHONON       :  21m36.45s CPU  22m34.03s WALL


   This run was terminated on:  16:47:20   2May2024            

=------------------------------------------------------------------------------=
   JOB DONE.
=------------------------------------------------------------------------------=
