
     Program Q2R v.7.1 starts on  2May2024 at 16:47:21 

     This program is part of the open-source Quantum ESPRESSO suite
     for quantum simulation of materials; please cite
         "P. Giannozzi et al., J. Phys.:Condens. Matter 21 395502 (2009);
         "P. Giannozzi et al., J. Phys.:Condens. Matter 29 465901 (2017);
         "P. Giannozzi et al., J. Chem. Phys. 152 154105 (2020);
          URL http://www.quantum-espresso.org", 
     in publications or presentations arising from this work. More details at
     http://www.quantum-espresso.org/quote

     Parallel version (MPI & OpenMP), running on       6 processor cores
     Number of MPI processes:                 6
     Threads/MPI process:                     1

     MPI processes distributed on     1 nodes
     R & G space division:  proc/nbgrp/npool/nimage =       6
     222591 MiB available memory on the printing compute node when the environment starts


     reading grid info from file graphite.dyn0    
  reading force constants from file graphite.dyn1
 macroscopic fields = T
  74.55811  -0.00000   0.00000
  -0.00000  74.55811   0.00000
   0.00000   0.00000   3.59778
  na=            1
   0.79194   0.00000  -0.00000
   0.00000   0.79194  -0.00000
   0.00000  -0.00000   0.10475
  na=            2
  -0.80966   0.00000  -0.00000
  -0.00000  -0.80966   0.00000
   0.00000  -0.00000  -0.10055
  na=            3
   0.79194   0.00000   0.00000
   0.00000   0.79194   0.00000
   0.00000   0.00000   0.10475
  na=            4
  -0.80966   0.00000   0.00000
  -0.00000  -0.80966  -0.00000
   0.00000   0.00000  -0.10055
Norm of the difference between old and new effective charges:    0.02542144192022543353
  nqs=            1
 q=   0.00000000  0.00000000  0.00000000
  reading force constants from file graphite.dyn2
  nqs=            1
 q=   0.00000000  0.00000000 -0.19360763
  reading force constants from file graphite.dyn3
  nqs=            6
 q=   0.00000000  0.28867514  0.00000000
 q=   0.00000000 -0.28867514  0.00000000
 q=  -0.25000000 -0.14433757  0.00000000
 q=   0.25000000 -0.14433757  0.00000000
 q=  -0.25000000  0.14433757  0.00000000
 q=   0.25000000  0.14433757  0.00000000
  reading force constants from file graphite.dyn4
  nqs=            6
 q=   0.00000000  0.28867514 -0.19360763
 q=   0.00000000 -0.28867514  0.19360763
 q=  -0.25000000 -0.14433757  0.19360763
 q=   0.25000000 -0.14433757  0.19360763
 q=  -0.25000000  0.14433757  0.19360763
 q=   0.25000000  0.14433757  0.19360763
  reading force constants from file graphite.dyn5
  nqs=            3
 q=   0.00000000 -0.57735027  0.00000000
 q=   0.50000000  0.28867514  0.00000000
 q=  -0.50000000  0.28867514  0.00000000
  reading force constants from file graphite.dyn6
  nqs=            3
 q=   0.00000000 -0.57735027 -0.19360763
 q=   0.50000000  0.28867514  0.19360763
 q=  -0.50000000  0.28867514  0.19360763
  reading force constants from file graphite.dyn7
  nqs=            6
 q=   0.25000000  0.43301270  0.00000000
 q=  -0.25000000 -0.43301270  0.00000000
 q=   0.25000000 -0.43301270  0.00000000
 q=   0.50000000  0.00000000  0.00000000
 q=  -0.50000000  0.00000000  0.00000000
 q=  -0.25000000  0.43301270  0.00000000
  reading force constants from file graphite.dyn8
  nqs=            6
 q=   0.25000000  0.43301270 -0.19360763
 q=  -0.25000000 -0.43301270  0.19360763
 q=   0.25000000 -0.43301270 -0.19360763
 q=   0.50000000  0.00000000  0.19360763
 q=  -0.50000000  0.00000000  0.19360763
 q=  -0.25000000  0.43301270  0.19360763

      q-space grid ok, #points =   32

      fft-check warning: sum of imaginary terms = 1.299227E-12

     Q2R          :      0.03s CPU      0.03s WALL


   This run was terminated on:  16:47:21   2May2024            

=------------------------------------------------------------------------------=
   JOB DONE.
=------------------------------------------------------------------------------=
