
     Program PWSCF v.7.1 starts on  2May2024 at 16:24:44 

     This program is part of the open-source Quantum ESPRESSO suite
     for quantum simulation of materials; please cite
         "P. Giannozzi et al., J. Phys.:Condens. Matter 21 395502 (2009);
         "P. Giannozzi et al., J. Phys.:Condens. Matter 29 465901 (2017);
         "P. Giannozzi et al., J. Chem. Phys. 152 154105 (2020);
          URL http://www.quantum-espresso.org", 
     in publications or presentations arising from this work. More details at
     http://www.quantum-espresso.org/quote

     Parallel version (MPI & OpenMP), running on       6 processor cores
     Number of MPI processes:                 6
     Threads/MPI process:                     1

     MPI processes distributed on     1 nodes
     222298 MiB available memory on the printing compute node when the environment starts

     Waiting for input...
     Reading input from standard input

     Current dimensions of program PWSCF are:
     Max number of different atomic species (ntypx) = 10
     Max number of k-points (npk) =  40000
     Max angular momentum in pseudopotentials (lmaxx) =  4
     file C.pbe-rrkjus.UPF: wavefunction(s)  2S 2P renormalized

     R & G space division:  proc/nbgrp/npool/nimage =       6
     Subspace diagonalization in iterative solution of the eigenvalue problem:
     a serial algorithm will be used


     Parallelization info
     --------------------
     sticks:   dense  smooth     PW     G-vecs:    dense   smooth      PW
     Min          43      30     10                 1516      823     184
     Max          45      32     11                 1521      825     193
     Sum         265     187     61                 9111     4943    1117

     Using Slab Decomposition



     bravais-lattice index     =            4
     lattice parameter (alat)  =       4.6463  a.u.
     unit-cell volume          =     224.3370 (a.u.)^3
     number of atoms/cell      =            4
     number of atomic types    =            1
     number of electrons       =        16.00
     number of Kohn-Sham states=            8
     kinetic-energy cutoff     =      30.0000  Ry
     charge density cutoff     =     180.0000  Ry
     scf convergence threshold =      1.0E-12
     mixing beta               =       0.7000
     number of iterations used =            8  plain     mixing
     Exchange-correlation= SLA  PW   PBE  PBE
                           (   1   4   3   4   0   0   0)

     celldm(1)=   4.646303  celldm(2)=   0.000000  celldm(3)=   2.582543
     celldm(4)=   0.000000  celldm(5)=   0.000000  celldm(6)=   0.000000

     crystal axes: (cart. coord. in units of alat)
               a(1) = (   1.000000   0.000000   0.000000 )  
               a(2) = (  -0.500000   0.866025   0.000000 )  
               a(3) = (   0.000000   0.000000   2.582543 )  

     reciprocal axes: (cart. coord. in units 2 pi/alat)
               b(1) = (  1.000000  0.577350 -0.000000 )  
               b(2) = (  0.000000  1.154701  0.000000 )  
               b(3) = (  0.000000 -0.000000  0.387215 )  


     PseudoPot. # 1 for C  read from file:
     /home/bonacc_m/Codes/q-e/pseudo/C.pbe-rrkjus.UPF
     MD5 check sum: c9ac5a99bc85b198593446162950cd17
     Pseudo is Ultrasoft, Zval =  4.0
     Generated by new atomic code, or converted to UPF format
     Using radial grid of  627 points,  4 beta functions with: 
                l(1) =   0
                l(2) =   0
                l(3) =   1
                l(4) =   1
     Q(r) pseudized with 0 coefficients 


     atomic species   valence    mass     pseudopotential
        C              4.00    12.00000     C ( 1.00)

     24 Sym. Ops., with inversion, found (12 have fractional translation)



   Cartesian axes

     site n.     atom                  positions (alat units)
         1           C   tau(   1) = (   0.0000000   0.0000000   0.0000000  )
         2           C   tau(   2) = (  -0.0000000   0.5773503   0.0000000  )
         3           C   tau(   3) = (   0.0000000   0.0000000   1.2912714  )
         4           C   tau(   4) = (   0.5000000   0.2886751   1.2912714  )

     number of k points=    40
                       cart. coord. in units 2pi/alat
        k(    1) = (   0.0625000   0.1082532   0.0484019), wk =   0.0312500
        k(    2) = (   0.0625000   0.1082532   0.1452057), wk =   0.0312500
        k(    3) = (   0.0625000   0.2525907   0.0484019), wk =   0.0625000
        k(    4) = (   0.0625000   0.2525907   0.1452057), wk =   0.0625000
        k(    5) = (   0.0625000   0.3969283   0.0484019), wk =   0.0625000
        k(    6) = (   0.0625000   0.3969283   0.1452057), wk =   0.0625000
        k(    7) = (   0.0625000   0.5412659   0.0484019), wk =   0.0625000
        k(    8) = (   0.0625000   0.5412659   0.1452057), wk =   0.0625000
        k(    9) = (   0.0625000  -0.4690971   0.0484019), wk =   0.0625000
        k(   10) = (   0.0625000  -0.4690971   0.1452057), wk =   0.0625000
        k(   11) = (   0.0625000  -0.3247595   0.0484019), wk =   0.0625000
        k(   12) = (   0.0625000  -0.3247595   0.1452057), wk =   0.0625000
        k(   13) = (   0.0625000  -0.1804220   0.0484019), wk =   0.0625000
        k(   14) = (   0.0625000  -0.1804220   0.1452057), wk =   0.0625000
        k(   15) = (   0.0625000  -0.0360844   0.0484019), wk =   0.0312500
        k(   16) = (   0.0625000  -0.0360844   0.1452057), wk =   0.0312500
        k(   17) = (   0.1875000   0.3247595   0.0484019), wk =   0.0312500
        k(   18) = (   0.1875000   0.3247595   0.1452057), wk =   0.0312500
        k(   19) = (   0.1875000   0.4690971   0.0484019), wk =   0.0625000
        k(   20) = (   0.1875000   0.4690971   0.1452057), wk =   0.0625000
        k(   21) = (   0.1875000   0.6134347   0.0484019), wk =   0.0625000
        k(   22) = (   0.1875000   0.6134347   0.1452057), wk =   0.0625000
        k(   23) = (   0.1875000  -0.3969283   0.0484019), wk =   0.0625000
        k(   24) = (   0.1875000  -0.3969283   0.1452057), wk =   0.0625000
        k(   25) = (   0.1875000  -0.2525907   0.0484019), wk =   0.0625000
        k(   26) = (   0.1875000  -0.2525907   0.1452057), wk =   0.0625000
        k(   27) = (   0.1875000  -0.1082532   0.0484019), wk =   0.0312500
        k(   28) = (   0.1875000  -0.1082532   0.1452057), wk =   0.0312500
        k(   29) = (   0.3125000   0.5412659   0.0484019), wk =   0.0312500
        k(   30) = (   0.3125000   0.5412659   0.1452057), wk =   0.0312500
        k(   31) = (   0.3125000   0.6856034   0.0484019), wk =   0.0625000
        k(   32) = (   0.3125000   0.6856034   0.1452057), wk =   0.0625000
        k(   33) = (   0.3125000  -0.3247595   0.0484019), wk =   0.0625000
        k(   34) = (   0.3125000  -0.3247595   0.1452057), wk =   0.0625000
        k(   35) = (   0.3125000  -0.1804220   0.0484019), wk =   0.0312500
        k(   36) = (   0.3125000  -0.1804220   0.1452057), wk =   0.0312500
        k(   37) = (   0.4375000   0.7577722   0.0484019), wk =   0.0312500
        k(   38) = (   0.4375000   0.7577722   0.1452057), wk =   0.0312500
        k(   39) = (   0.4375000  -0.2525907   0.0484019), wk =   0.0312500
        k(   40) = (   0.4375000  -0.2525907   0.1452057), wk =   0.0312500

     Dense  grid:     9111 G-vectors     FFT dimensions: (  20,  20,  54)

     Smooth grid:     4943 G-vectors     FFT dimensions: (  18,  18,  48)

     Estimated max dynamical RAM per process >       2.84 MB

     Estimated total dynamical RAM >      17.03 MB

     Initial potential from superposition of free atoms

     starting charge      15.9998, renormalised to      16.0000
     Starting wfcs are   16 randomized atomic wfcs

     total cpu time spent up to now is        0.2 secs

     Self-consistent Calculation

     iteration #  1     ecut=    30.00 Ry     beta= 0.70
     Davidson diagonalization with overlap
     ethr =  1.00E-02,  avg # of iterations =  2.0

     total cpu time spent up to now is        0.3 secs

     total energy              =     -45.52848595 Ry
     estimated scf accuracy    <       0.36934352 Ry

     iteration #  2     ecut=    30.00 Ry     beta= 0.70
     Davidson diagonalization with overlap
     ethr =  2.31E-03,  avg # of iterations =  2.0

     total cpu time spent up to now is        0.4 secs

     total energy              =     -45.57155865 Ry
     estimated scf accuracy    <       0.00445396 Ry

     iteration #  3     ecut=    30.00 Ry     beta= 0.70
     Davidson diagonalization with overlap
     ethr =  2.78E-05,  avg # of iterations =  2.3

     total cpu time spent up to now is        0.6 secs

     total energy              =     -45.57238189 Ry
     estimated scf accuracy    <       0.00024913 Ry

     iteration #  4     ecut=    30.00 Ry     beta= 0.70
     Davidson diagonalization with overlap
     ethr =  1.56E-06,  avg # of iterations =  3.1

     total cpu time spent up to now is        0.8 secs

     total energy              =     -45.57244801 Ry
     estimated scf accuracy    <       0.00000470 Ry

     iteration #  5     ecut=    30.00 Ry     beta= 0.70
     Davidson diagonalization with overlap
     ethr =  2.94E-08,  avg # of iterations =  3.9

     total cpu time spent up to now is        0.9 secs

     total energy              =     -45.57245141 Ry
     estimated scf accuracy    <       0.00000035 Ry

     iteration #  6     ecut=    30.00 Ry     beta= 0.70
     Davidson diagonalization with overlap
     ethr =  2.18E-09,  avg # of iterations =  2.9

     total cpu time spent up to now is        1.1 secs

     total energy              =     -45.57245150 Ry
     estimated scf accuracy    <       0.00000004 Ry

     iteration #  7     ecut=    30.00 Ry     beta= 0.70
     Davidson diagonalization with overlap
     ethr =  2.49E-10,  avg # of iterations =  3.3

     total cpu time spent up to now is        1.2 secs

     total energy              =     -45.57245152 Ry
     estimated scf accuracy    <          2.2E-09 Ry

     iteration #  8     ecut=    30.00 Ry     beta= 0.70
     Davidson diagonalization with overlap
     ethr =  1.35E-11,  avg # of iterations =  3.1

     total cpu time spent up to now is        1.3 secs

     total energy              =     -45.57245152 Ry
     estimated scf accuracy    <          2.8E-11 Ry

     iteration #  9     ecut=    30.00 Ry     beta= 0.70
     Davidson diagonalization with overlap
     ethr =  1.77E-13,  avg # of iterations =  4.8

     total cpu time spent up to now is        1.5 secs

     total energy              =     -45.57245152 Ry
     estimated scf accuracy    <          1.3E-10 Ry

     iteration # 10     ecut=    30.00 Ry     beta= 0.70
     Davidson diagonalization with overlap
     ethr =  1.77E-13,  avg # of iterations =  3.4

     total cpu time spent up to now is        1.7 secs

     total energy              =     -45.57245152 Ry
     estimated scf accuracy    <          7.1E-12 Ry

     iteration # 11     ecut=    30.00 Ry     beta= 0.70
     Davidson diagonalization with overlap
     ethr =  1.00E-13,  avg # of iterations =  2.5

     total cpu time spent up to now is        1.8 secs

     End of self-consistent calculation

          k = 0.0625 0.1083 0.0484 (   600 PWs)   bands (ev):

   -11.7683 -11.3568  -0.7009   1.6374   3.6195   3.6613   4.0550   4.0882

          k = 0.0625 0.1083 0.1452 (   601 PWs)   bands (ev):

   -11.6550 -11.4849  -0.1030   0.8471   3.6326   3.6500   4.0637   4.0775

          k = 0.0625 0.2526 0.0484 (   619 PWs)   bands (ev):

   -10.8381 -10.4486   0.4227   1.0007   1.1190   2.6642   2.6678   2.7374

          k = 0.0625 0.2526 0.1452 (   616 PWs)   bands (ev):

   -10.7304 -10.5694   0.9926   1.0366   1.0884   1.9130   2.6859   2.7158

          k = 0.0625 0.3969 0.0484 (   625 PWs)   bands (ev):

    -9.1937  -8.8432  -2.2657  -2.0697   1.4884   1.5786   2.3612   4.3666

          k = 0.0625 0.3969 0.1452 (   627 PWs)   bands (ev):

    -9.0962  -8.9512  -2.2100  -2.1288   1.5145   1.5519   2.8870   3.7073

          k = 0.0625 0.5413 0.0484 (   627 PWs)   bands (ev):

    -6.9723  -6.7074  -5.2419  -5.0199   0.9393   1.0349   4.6390   5.7223

          k = 0.0625 0.5413 0.1452 (   624 PWs)   bands (ev):

    -6.8959  -6.7860  -5.1827  -5.0905   0.9669   1.0065   5.0039   5.4713

          k = 0.0625-0.4691 0.0484 (   626 PWs)   bands (ev):

    -8.1286  -7.8054  -3.8503  -3.6231   1.1249   1.2188   3.5443   5.2640

          k = 0.0625-0.4691 0.1452 (   627 PWs)   bands (ev):

    -8.0381  -7.9044  -3.7862  -3.6922   1.1520   1.1909   4.0165   4.7279

          k = 0.0625-0.3248 0.0484 (   623 PWs)   bands (ev):

   -10.1019  -9.7298  -0.6200  -0.4611   1.3009   2.0126   2.0962   3.4541

          k = 0.0625-0.3248 0.1452 (   624 PWs)   bands (ev):

    -9.9987  -9.8449  -0.5746  -0.5088   1.8575   2.0368   2.0714   2.7352

          k = 0.0625-0.1804 0.0484 (   613 PWs)   bands (ev):

   -11.3950 -10.9923  -0.2485   2.0540   2.4729   2.5473   3.3864   3.4392

          k = 0.0625-0.1804 0.1452 (   607 PWs)   bands (ev):

   -11.2839 -11.1175   0.3411   1.2771   2.4952   2.5259   3.4012   3.4231

          k = 0.0625-0.0361 0.0484 (   596 PWs)   bands (ev):

   -11.9555 -11.5395  -0.9285   1.4269   4.2682   4.3112   4.4462   4.4849

          k = 0.0625-0.0361 0.1452 (   604 PWs)   bands (ev):

   -11.8411 -11.6692  -0.3266   0.6302   4.2807   4.2985   4.4574   4.4735

          k = 0.1875 0.3248 0.0484 (   622 PWs)   bands (ev):

    -9.5562  -9.1970  -0.8451  -0.7564   0.5809   0.6462   1.9513   4.0358

          k = 0.1875 0.3248 0.1452 (   625 PWs)   bands (ev):

    -9.4564  -9.3079  -0.8177  -0.7810   0.5967   0.6238   2.4926   3.3432

          k = 0.1875 0.4691 0.0484 (   630 PWs)   bands (ev):

    -7.6107  -7.3008  -3.5011  -3.3035  -0.7451  -0.6098   4.1750   5.8577

          k = 0.1875 0.4691 0.1452 (   627 PWs)   bands (ev):

    -7.5238  -7.3956  -3.4448  -3.3630  -0.7073  -0.6513   4.6355   5.3307

          k = 0.1875 0.6134 0.0484 (   629 PWs)   bands (ev):

    -6.4811  -6.2289  -4.8066  -4.6044  -0.9746  -0.8282   5.2933   6.3772

          k = 0.1875 0.6134 0.1452 (   629 PWs)   bands (ev):

    -6.4082  -6.3035  -4.7525  -4.6684  -0.9333  -0.8727   5.6581   6.1277

          k = 0.1875-0.3969 0.0484 (   628 PWs)   bands (ev):

    -8.6588  -8.3213  -2.0965  -1.9539  -0.2498  -0.1455   2.9986   4.9378

          k = 0.1875-0.3969 0.1452 (   629 PWs)   bands (ev):

    -8.5647  -8.4251  -2.0546  -1.9954  -0.2220  -0.1787   3.5089   4.3027

          k = 0.1875-0.2526 0.0484 (   622 PWs)   bands (ev):

   -10.2855  -9.9090   0.1297   0.2379   1.0852   1.6591   1.7338   3.2653

          k = 0.1875-0.2526 0.1452 (   619 PWs)   bands (ev):

   -10.1812 -10.0256   0.1615   0.2062   1.6472   1.6797   1.7106   2.5357

          k = 0.1875-0.1083 0.0484 (   618 PWs)   bands (ev):

   -11.2089 -10.8106  -0.0238   1.8244   1.9329   2.2600   3.2682   3.3340

          k = 0.1875-0.1083 0.1452 (   611 PWs)   bands (ev):

   -11.0990 -10.9344   0.5613   1.4892   1.8569   1.9012   3.2874   3.3147

          k = 0.3125 0.5413 0.0484 (   629 PWs)   bands (ev):

    -5.5530  -5.3297  -4.5078  -4.3771  -2.7518  -2.6902   6.4388   7.5159

          k = 0.3125 0.5413 0.1452 (   618 PWs)   bands (ev):

    -5.4877  -5.3950  -4.4693  -4.4154  -2.7414  -2.7157   6.8106   7.2803

          k = 0.3125 0.6856 0.0484 (   629 PWs)   bands (ev):

    -6.6101  -6.3320  -3.9565  -3.7895  -1.9527  -1.8255   5.2939   6.7222

          k = 0.3125 0.6856 0.1452 (   623 PWs)   bands (ev):

    -6.5315  -6.4164  -3.9080  -3.8387  -1.9197  -1.8669   5.7061   6.3037

          k = 0.3125-0.3248 0.0484 (   626 PWs)   bands (ev):

    -8.4807  -8.1477  -2.9478  -2.7455   0.4877   0.6018   3.1842   5.0554

          k = 0.3125-0.3248 0.1452 (   630 PWs)   bands (ev):

    -8.3877  -8.2500  -2.8903  -2.8065   0.5203   0.5676   3.6825   4.4507

          k = 0.3125-0.1804 0.0484 (   619 PWs)   bands (ev):

    -9.7366  -9.3731  -1.4718  -1.2897   1.7289   2.0282   2.1071   3.8255

          k = 0.3125-0.1804 0.1452 (   622 PWs)   bands (ev):

    -9.6357  -9.4854  -1.4199  -1.3445   2.0511   2.0837   2.2737   3.1293

          k = 0.4375 0.7578 0.0484 (   625 PWs)   bands (ev):

    -6.4178  -6.2624  -5.3685  -5.2575   0.0981   0.2199   5.1298   5.9604

          k = 0.4375 0.7578 0.1452 (   626 PWs)   bands (ev):

    -6.3640  -6.2982  -5.3522  -5.3047   0.1330   0.1835   5.4510   5.8166

          k = 0.4375-0.2526 0.0484 (   626 PWs)   bands (ev):

    -7.6139  -7.3083  -4.6443  -4.4057   1.3169   1.4008   4.0511   5.5077

          k = 0.4375-0.2526 0.1452 (   623 PWs)   bands (ev):

    -7.5280  -7.4015  -4.5777  -4.4789   1.3412   1.3760   4.4791   5.0912

     highest occupied level (ev):     7.5159

!    total energy              =     -45.57245152 Ry
     estimated scf accuracy    <          5.0E-13 Ry

     The total energy is the sum of the following terms:
     one-electron contribution =      -7.07251490 Ry
     hartree contribution      =      11.84820263 Ry
     xc contribution           =     -14.07896184 Ry
     ewald contribution        =     -36.26917740 Ry

     convergence has been achieved in  11 iterations

     Writing all to output data dir /home/bonacc_m/Documents/phonons/example16/TMP_graphite/graphite.save/

     init_run     :      0.10s CPU      0.10s WALL (       1 calls)
     electrons    :      1.56s CPU      1.66s WALL (       1 calls)

     Called by init_run:
     wfcinit      :      0.08s CPU      0.08s WALL (       1 calls)
     potinit      :      0.00s CPU      0.00s WALL (       1 calls)
     hinit0       :      0.01s CPU      0.01s WALL (       1 calls)

     Called by electrons:
     c_bands      :      1.34s CPU      1.42s WALL (      11 calls)
     sum_band     :      0.18s CPU      0.20s WALL (      11 calls)
     v_of_rho     :      0.02s CPU      0.02s WALL (      12 calls)
     newd         :      0.02s CPU      0.02s WALL (      12 calls)
     mix_rho      :      0.00s CPU      0.00s WALL (      11 calls)

     Called by c_bands:
     init_us_2    :      0.02s CPU      0.02s WALL (     920 calls)
     init_us_2:cp :      0.02s CPU      0.02s WALL (     920 calls)
     cegterg      :      1.30s CPU      1.38s WALL (     440 calls)

     Called by *egterg:
     cdiaghg      :      0.11s CPU      0.11s WALL (    1768 calls)
     h_psi        :      1.00s CPU      1.05s WALL (    1808 calls)
     s_psi        :      0.07s CPU      0.08s WALL (    1808 calls)
     g_psi        :      0.00s CPU      0.00s WALL (    1328 calls)

     Called by h_psi:
     h_psi:calbec :      0.09s CPU      0.10s WALL (    1808 calls)
     vloc_psi     :      0.82s CPU      0.87s WALL (    1808 calls)
     add_vuspsi   :      0.07s CPU      0.08s WALL (    1808 calls)

     General routines
     calbec       :      0.12s CPU      0.13s WALL (    2248 calls)
     fft          :      0.01s CPU      0.01s WALL (     153 calls)
     ffts         :      0.00s CPU      0.00s WALL (      23 calls)
     fftw         :      0.87s CPU      0.92s WALL (   26496 calls)
     interpolate  :      0.00s CPU      0.00s WALL (      12 calls)

     Parallel routines

     PWSCF        :      1.73s CPU      1.83s WALL


   This run was terminated on:  16:24:46   2May2024            

=------------------------------------------------------------------------------=
   JOB DONE.
=------------------------------------------------------------------------------=
