
     Program MATDYN v.7.1 starts on  4Jun2024 at  0:57:44 

     This program is part of the open-source Quantum ESPRESSO suite
     for quantum simulation of materials; please cite
         "P. Giannozzi et al., J. Phys.:Condens. Matter 21 395502 (2009);
         "P. Giannozzi et al., J. Phys.:Condens. Matter 29 465901 (2017);
         "P. Giannozzi et al., J. Chem. Phys. 152 154105 (2020);
          URL http://www.quantum-espresso.org", 
     in publications or presentations arising from this work. More details at
     http://www.quantum-espresso.org/quote

     Parallel version (MPI & OpenMP), running on      12 processor cores
     Number of MPI processes:                12
     Threads/MPI process:                     1

     MPI processes distributed on     1 nodes
     R & G space division:  proc/nbgrp/npool/nimage =      12
     238142 MiB available memory on the printing compute node when the environment starts

 mass for atomic type   1 not given; uses mass from file GaAs.fc                                                                                                                                                                                                                                                         
 mass for atomic type   2 not given; uses mass from file GaAs.fc                                                                                                                                                                                                                                                         

     MATDYN       :      0.04s CPU      0.04s WALL


   This run was terminated on:   0:57:44   4Jun2024            

=------------------------------------------------------------------------------=
   JOB DONE.
=------------------------------------------------------------------------------=
