
     Program PHONON v.7.1 starts on  2May2024 at 17:12:49 

     This program is part of the open-source Quantum ESPRESSO suite
     for quantum simulation of materials; please cite
         "P. Giannozzi et al., J. Phys.:Condens. Matter 21 395502 (2009);
         "P. Giannozzi et al., J. Phys.:Condens. Matter 29 465901 (2017);
         "P. Giannozzi et al., J. Chem. Phys. 152 154105 (2020);
          URL http://www.quantum-espresso.org", 
     in publications or presentations arising from this work. More details at
     http://www.quantum-espresso.org/quote

     Parallel version (MPI & OpenMP), running on      12 processor cores
     Number of MPI processes:                12
     Threads/MPI process:                     1

     MPI processes distributed on     1 nodes
     R & G space division:  proc/nbgrp/npool/nimage =      12
     222209 MiB available memory on the printing compute node when the environment starts

     Reading input from GaAs.ph.in

     Reading xml data from directory:

     /home/bonacc_m/Documents/phonons/GaAs_NAC/TMP_GaAs/GaAs.save/

     IMPORTANT: XC functional enforced from input :
     Exchange-correlation= PBE
                           (   1   4   3   4   0   0   0)
     Any further DFT definition will be discarded
     Please, verify this is what you really want


     Parallelization info
     --------------------
     sticks:   dense  smooth     PW     G-vecs:    dense   smooth      PW
     Min         215     107     31                 7301     2576     417
     Max         216     108     32                 7306     2581     421
     Sum        2587    1285    379                87651    30923    5029

     Using Slab Decomposition

     Reading collected, re-writing distributed wavefunctions


     Dynamical matrices for ( 4, 4, 4)  uniform grid of q-points
     (   8 q-points):
       N         xq(1)         xq(2)         xq(3) 
       1   0.000000000   0.000000000   0.000000000
       2  -0.250000000   0.250000000  -0.250000000
       3   0.500000000  -0.500000000   0.500000000
       4   0.000000000   0.500000000   0.000000000
       5   0.750000000  -0.250000000   0.750000000
       6   0.500000000   0.000000000   0.500000000
       7   0.000000000  -1.000000000   0.000000000
       8  -0.500000000  -1.000000000   0.000000000

     Calculation of q =    0.0000000   0.0000000   0.0000000

     GaAs                                                                       

     bravais-lattice index     =            2
     lattice parameter (alat)  =      10.8615  a.u.
     unit-cell volume          =     320.3354 (a.u.)^3
     number of atoms/cell      =            2
     number of atomic types    =            2
     kinetic-energy cut-off    =      80.0000  Ry
     charge density cut-off    =     640.0000  Ry
     convergence threshold     =      1.0E-13
     beta                      =       0.7000
     number of iterations used =            4
     Exchange-correlation= PBE
                           (   1   4   3   4   0   0   0)


     celldm(1)=   10.86146  celldm(2)=    0.00000  celldm(3)=    0.00000
     celldm(4)=    0.00000  celldm(5)=    0.00000  celldm(6)=    0.00000

     crystal axes: (cart. coord. in units of alat)
               a(1) = ( -0.5000  0.0000  0.5000 )  
               a(2) = (  0.0000  0.5000  0.5000 )  
               a(3) = ( -0.5000  0.5000  0.0000 )  

     reciprocal axes: (cart. coord. in units 2 pi/alat)
               b(1) = ( -1.0000 -1.0000  1.0000 )  
               b(2) = (  1.0000  1.0000  1.0000 )  
               b(3) = ( -1.0000  1.0000 -1.0000 )  


     Atoms inside the unit cell: 

     Cartesian axes

     site n.  atom      mass           positions (alat units)
        1     Ga  69.7230   tau(    1) = (    0.00000    0.00000    0.00000  )
        2     As  74.9216   tau(    2) = (    0.25000    0.25000    0.25000  )

     Computing dynamical matrix for 
                    q = (   0.0000000   0.0000000   0.0000000 )

     25 Sym.Ops. (with q -> -q+G )


     G cutoff = 1912.4796  (   7302 G-vectors)     FFT grid: ( 64, 64, 64)
     G cutoff =  956.2398  (   2577 G-vectors)  smooth grid: ( 45, 45, 45)
     number of k points=    60

     PseudoPot. # 1 for Ga read from file:
     /home/bonacc_m/Downloads/sg15_oncv_upf_2020-02-06/Ga_ONCV_PBE-1.2.upf
     MD5 check sum: 9961a622ff199abf6dfec9a0a10b8555
     Pseudo is Norm-conserving, Zval = 13.0
     Generated using ONCVPSP code by D. R. Hamann
     Using radial grid of  602 points,  6 beta functions with: 
                l(1) =   0
                l(2) =   0
                l(3) =   1
                l(4) =   1
                l(5) =   2
                l(6) =   2

     PseudoPot. # 2 for As read from file:
     /home/bonacc_m/Downloads/sg15_oncv_upf_2020-02-06/As_ONCV_PBE-1.2.upf
     MD5 check sum: a2ff92a4799c87c945fff9e6739df4dd
     Pseudo is Norm-conserving, Zval =  5.0
     Generated using ONCVPSP code by D. R. Hamann
     Using radial grid of  602 points,  6 beta functions with: 
                l(1) =   0
                l(2) =   0
                l(3) =   1
                l(4) =   1
                l(5) =   2
                l(6) =   2

     Mode symmetry, T_d (-43m)  point group:


     Electric field:
     Dielectric constant
     Born effective charges in two ways 


     Atomic displacements:
     There are    2 irreducible representations

     Representation     1      3 modes -  To be done

     Representation     2      3 modes -  To be done



     Alpha used in Ewald sum =   2.8000
     PHONON       :      0.55s CPU      0.56s WALL


     Electric Fields Calculation

      iter #   1 total cpu time :    24.9 secs   av.it.:   8.2
      thresh= 1.000E-02 alpha_mix =  0.700 |ddv_scf|^2 =  2.089E-08

      iter #   2 total cpu time :    35.6 secs   av.it.:  17.1
      thresh= 1.445E-05 alpha_mix =  0.700 |ddv_scf|^2 =  1.492E-09

      iter #   3 total cpu time :    45.3 secs   av.it.:  16.0
      thresh= 3.862E-06 alpha_mix =  0.700 |ddv_scf|^2 =  1.216E-10

      iter #   4 total cpu time :    55.2 secs   av.it.:  16.4
      thresh= 1.103E-06 alpha_mix =  0.700 |ddv_scf|^2 =  1.390E-12

      iter #   5 total cpu time :    66.7 secs   av.it.:  18.3
      thresh= 1.179E-07 alpha_mix =  0.700 |ddv_scf|^2 =  2.878E-13

      iter #   6 total cpu time :    77.3 secs   av.it.:  17.9
      thresh= 5.365E-08 alpha_mix =  0.700 |ddv_scf|^2 =  3.132E-15

     End of electric fields calculation

          Dielectric constant in cartesian axis 

          (      15.249914285      -0.000000000      -0.000000000 )
          (      -0.000000000      15.249914285      -0.000000000 )
          (      -0.000000000      -0.000000000      15.249914285 )

          Effective charges (d Force / dE) in cartesian axis without acoustic sum rule applied (asr)

           atom      1   Ga Mean Z*:        2.20458
      Ex  (        2.20458        0.00000        0.00000 )
      Ey  (        0.00000        2.20458        0.00000 )
      Ez  (        0.00000        0.00000        2.20458 )
           atom      2   As Mean Z*:       -2.21599
      Ex  (       -2.21599        0.00000       -0.00000 )
      Ey  (        0.00000       -2.21599       -0.00000 )
      Ez  (       -0.00000        0.00000       -2.21599 )

          Effective charges Sum: Mean:       -0.01140
             -0.01140        0.00000       -0.00000
              0.00000       -0.01140        0.00000
             -0.00000       -0.00000       -0.01140

          Effective charges (d Force / dE) in cartesian axis with asr applied: 
           atom      1   Ga Mean Z*:        2.21029
      E*x (        2.21029       -0.00000        0.00000 )
      E*y (       -0.00000        2.21029        0.00000 )
      E*z (        0.00000       -0.00000        2.21029 )
           atom      2   As Mean Z*:       -2.21029
      E*x (       -2.21029        0.00000       -0.00000 )
      E*y (        0.00000       -2.21029       -0.00000 )
      E*z (       -0.00000        0.00000       -2.21029 )


     Representation #   1 modes #   1   2   3

     Self-consistent Calculation

      iter #   1 total cpu time :    84.2 secs   av.it.:   6.9
      thresh= 1.000E-02 alpha_mix =  0.700 |ddv_scf|^2 =  9.549E-09

      iter #   2 total cpu time :    94.9 secs   av.it.:  17.4
      thresh= 9.772E-06 alpha_mix =  0.700 |ddv_scf|^2 =  4.784E-10

      iter #   3 total cpu time :   106.1 secs   av.it.:  17.8
      thresh= 2.187E-06 alpha_mix =  0.700 |ddv_scf|^2 =  7.560E-12

      iter #   4 total cpu time :   117.1 secs   av.it.:  18.1
      thresh= 2.750E-07 alpha_mix =  0.700 |ddv_scf|^2 =  2.838E-13

      iter #   5 total cpu time :   127.3 secs   av.it.:  16.9
      thresh= 5.327E-08 alpha_mix =  0.700 |ddv_scf|^2 =  2.618E-15

     End of self-consistent calculation

     Convergence has been achieved 


     Representation #   2 modes #   4   5   6

     Self-consistent Calculation

      iter #   1 total cpu time :   135.0 secs   av.it.:  11.1
      thresh= 1.000E-02 alpha_mix =  0.700 |ddv_scf|^2 =  8.822E-07

      iter #   2 total cpu time :   146.3 secs   av.it.:  18.9
      thresh= 9.392E-05 alpha_mix =  0.700 |ddv_scf|^2 =  2.507E-07

      iter #   3 total cpu time :   157.3 secs   av.it.:  18.1
      thresh= 5.007E-05 alpha_mix =  0.700 |ddv_scf|^2 =  1.319E-10

      iter #   4 total cpu time :   166.8 secs   av.it.:  15.6
      thresh= 1.149E-06 alpha_mix =  0.700 |ddv_scf|^2 =  1.226E-12

      iter #   5 total cpu time :   177.4 secs   av.it.:  17.4
      thresh= 1.107E-07 alpha_mix =  0.700 |ddv_scf|^2 =  4.868E-14

     End of self-consistent calculation

     Convergence has been achieved 

     Number of q in the star =    1
     List of q in the star:
          1   0.000000000   0.000000000   0.000000000

          Dielectric constant in cartesian axis 

          (      15.249914285      -0.000000000      -0.000000000 )
          (      -0.000000000      15.249914285      -0.000000000 )
          (      -0.000000000      -0.000000000      15.249914285 )

          Effective charges (d Force / dE) in cartesian axis without acoustic sum rule applied (asr)

           atom      1   Ga Mean Z*:        2.20458
      Ex  (        2.20458        0.00000        0.00000 )
      Ey  (        0.00000        2.20458        0.00000 )
      Ez  (        0.00000        0.00000        2.20458 )
           atom      2   As Mean Z*:       -2.21599
      Ex  (       -2.21599        0.00000       -0.00000 )
      Ey  (        0.00000       -2.21599       -0.00000 )
      Ez  (       -0.00000        0.00000       -2.21599 )

          Effective charges Sum: Mean:       -0.01140
             -0.01140        0.00000       -0.00000
              0.00000       -0.01140        0.00000
             -0.00000       -0.00000       -0.01140

          Effective charges (d Force / dE) in cartesian axis with asr applied: 
           atom      1   Ga Mean Z*:        2.21029
      E*x (        2.21029       -0.00000        0.00000 )
      E*y (       -0.00000        2.21029        0.00000 )
      E*z (        0.00000       -0.00000        2.21029 )
           atom      2   As Mean Z*:       -2.21029
      E*x (       -2.21029        0.00000       -0.00000 )
      E*y (        0.00000       -2.21029       -0.00000 )
      E*z (       -0.00000        0.00000       -2.21029 )

          Effective charges (d P / du) in cartesian axis 

           atom      1   Ga 
      Px  (        2.20929       -0.00000        0.00000 )
      Py  (        0.00000        2.20929        0.00000 )
      Pz  (       -0.00000        0.00000        2.20929 )
           atom      2   As 
      Px  (       -2.21607       -0.00000       -0.00000 )
      Py  (       -0.00000       -2.21607       -0.00000 )
      Pz  (       -0.00000       -0.00000       -2.21607 )

     Diagonalizing the dynamical matrix

     q = (    0.000000000   0.000000000   0.000000000 ) 

 **************************************************************************
     freq (    1) =       1.109204 [THz] =      36.999072 [cm-1]
     freq (    2) =       1.109204 [THz] =      36.999072 [cm-1]
     freq (    3) =       1.109204 [THz] =      36.999072 [cm-1]
     freq (    4) =       7.739496 [THz] =     258.161799 [cm-1]
     freq (    5) =       7.739496 [THz] =     258.161799 [cm-1]
     freq (    6) =       7.739496 [THz] =     258.161799 [cm-1]
 **************************************************************************

     Mode symmetry, T_d (-43m)  point group:

     freq (   1-   3) =         37.0  [cm-1]   --> T_2  G_15 P_4   I+R
     freq (   4-   6) =        258.2  [cm-1]   --> T_2  G_15 P_4   I+R

     Calculation of q =   -0.2500000   0.2500000  -0.2500000
     Subspace diagonalization in iterative solution of the eigenvalue problem:
     a serial algorithm will be used


     Parallelization info
     --------------------
     sticks:   dense  smooth     PW     G-vecs:    dense   smooth      PW
     Min         215     107     34                 7301     2576     460
     Max         216     108     36                 7306     2581     461
     Sum        2587    1285    421                87651    30923    5521

     Using Slab Decomposition


     Title: 
     GaAs                                                                       


     bravais-lattice index     =            2
     lattice parameter (alat)  =      10.8615  a.u.
     unit-cell volume          =     320.3354 (a.u.)^3
     number of atoms/cell      =            2
     number of atomic types    =            2
     number of electrons       =        18.00
     number of Kohn-Sham states=            9
     kinetic-energy cutoff     =      80.0000  Ry
     charge density cutoff     =     640.0000  Ry
     Exchange-correlation= PBE
                           (   1   4   3   4   0   0   0)

     celldm(1)=  10.861462  celldm(2)=   0.000000  celldm(3)=   0.000000
     celldm(4)=   0.000000  celldm(5)=   0.000000  celldm(6)=   0.000000

     crystal axes: (cart. coord. in units of alat)
               a(1) = (  -0.500000   0.000000   0.500000 )  
               a(2) = (   0.000000   0.500000   0.500000 )  
               a(3) = (  -0.500000   0.500000   0.000000 )  

     reciprocal axes: (cart. coord. in units 2 pi/alat)
               b(1) = ( -1.000000 -1.000000  1.000000 )  
               b(2) = (  1.000000  1.000000  1.000000 )  
               b(3) = ( -1.000000  1.000000 -1.000000 )  


     PseudoPot. # 1 for Ga read from file:
     /home/bonacc_m/Downloads/sg15_oncv_upf_2020-02-06/Ga_ONCV_PBE-1.2.upf
     MD5 check sum: 9961a622ff199abf6dfec9a0a10b8555
     Pseudo is Norm-conserving, Zval = 13.0
     Generated using ONCVPSP code by D. R. Hamann
     Using radial grid of  602 points,  6 beta functions with: 
                l(1) =   0
                l(2) =   0
                l(3) =   1
                l(4) =   1
                l(5) =   2
                l(6) =   2

     PseudoPot. # 2 for As read from file:
     /home/bonacc_m/Downloads/sg15_oncv_upf_2020-02-06/As_ONCV_PBE-1.2.upf
     MD5 check sum: a2ff92a4799c87c945fff9e6739df4dd
     Pseudo is Norm-conserving, Zval =  5.0
     Generated using ONCVPSP code by D. R. Hamann
     Using radial grid of  602 points,  6 beta functions with: 
                l(1) =   0
                l(2) =   0
                l(3) =   1
                l(4) =   1
                l(5) =   2
                l(6) =   2

     atomic species   valence    mass     pseudopotential
        Ga            13.00    69.72300     Ga( 1.00)
        As             5.00    74.92159     As( 1.00)

     24 Sym. Ops. (no inversion) found



   Cartesian axes

     site n.     atom                  positions (alat units)
         1           Ga  tau(   1) = (   0.0000000   0.0000000   0.0000000  )
         2           As  tau(   2) = (   0.2500000   0.2500000   0.2500000  )

     number of k points=   816

     Number of k-points >= 100: set verbosity='high' to print them.

     Dense  grid:    87651 G-vectors     FFT dimensions: (  64,  64,  64)

     Smooth grid:    30923 G-vectors     FFT dimensions: (  45,  45,  45)

     Estimated max dynamical RAM per process >       7.99 MB

     Estimated total dynamical RAM >      95.83 MB

     The potential is recalculated from file :
     /home/bonacc_m/Documents/phonons/GaAs_NAC/TMP_GaAs/_ph0/GaAs.save/charge-density

     Starting wfcs are    0 atomic +    9 random wfcs

     Band Structure Calculation
     Davidson diagonalization with overlap

     ethr =  5.56E-11,  avg # of iterations = 18.2

     total cpu time spent up to now is       50.9 secs

     End of band structure calculation

     Number of k-points >= 100: set verbosity='high' to print the bands.

     highest occupied level (ev):     6.5335

     Writing config to output data dir /home/bonacc_m/Documents/phonons/GaAs_NAC/TMP_GaAs/_ph0/GaAs.save/

     GaAs                                                                       

     bravais-lattice index     =            2
     lattice parameter (alat)  =      10.8615  a.u.
     unit-cell volume          =     320.3354 (a.u.)^3
     number of atoms/cell      =            2
     number of atomic types    =            2
     kinetic-energy cut-off    =      80.0000  Ry
     charge density cut-off    =     640.0000  Ry
     convergence threshold     =      1.0E-13
     beta                      =       0.7000
     number of iterations used =            4
     Exchange-correlation= PBE
                           (   1   4   3   4   0   0   0)


     celldm(1)=   10.86146  celldm(2)=    0.00000  celldm(3)=    0.00000
     celldm(4)=    0.00000  celldm(5)=    0.00000  celldm(6)=    0.00000

     crystal axes: (cart. coord. in units of alat)
               a(1) = ( -0.5000  0.0000  0.5000 )  
               a(2) = (  0.0000  0.5000  0.5000 )  
               a(3) = ( -0.5000  0.5000  0.0000 )  

     reciprocal axes: (cart. coord. in units 2 pi/alat)
               b(1) = ( -1.0000 -1.0000  1.0000 )  
               b(2) = (  1.0000  1.0000  1.0000 )  
               b(3) = ( -1.0000  1.0000 -1.0000 )  


     Atoms inside the unit cell: 

     Cartesian axes

     site n.  atom      mass           positions (alat units)
        1     Ga  69.7230   tau(    1) = (    0.00000    0.00000    0.00000  )
        2     As  74.9216   tau(    2) = (    0.25000    0.25000    0.25000  )

     Computing dynamical matrix for 
                    q = (  -0.2500000   0.2500000  -0.2500000 )

      6 Sym.Ops. (no q -> -q+G )


     G cutoff = 1912.4796  (   7302 G-vectors)     FFT grid: ( 64, 64, 64)
     G cutoff =  956.2398  (   2577 G-vectors)  smooth grid: ( 45, 45, 45)
     number of k points=   816

     PseudoPot. # 1 for Ga read from file:
     /home/bonacc_m/Downloads/sg15_oncv_upf_2020-02-06/Ga_ONCV_PBE-1.2.upf
     MD5 check sum: 9961a622ff199abf6dfec9a0a10b8555
     Pseudo is Norm-conserving, Zval = 13.0
     Generated using ONCVPSP code by D. R. Hamann
     Using radial grid of  602 points,  6 beta functions with: 
                l(1) =   0
                l(2) =   0
                l(3) =   1
                l(4) =   1
                l(5) =   2
                l(6) =   2

     PseudoPot. # 2 for As read from file:
     /home/bonacc_m/Downloads/sg15_oncv_upf_2020-02-06/As_ONCV_PBE-1.2.upf
     MD5 check sum: a2ff92a4799c87c945fff9e6739df4dd
     Pseudo is Norm-conserving, Zval =  5.0
     Generated using ONCVPSP code by D. R. Hamann
     Using radial grid of  602 points,  6 beta functions with: 
                l(1) =   0
                l(2) =   0
                l(3) =   1
                l(4) =   1
                l(5) =   2
                l(6) =   2

     Mode symmetry, C_3v (3m)   point group:


     Atomic displacements:
     There are    4 irreducible representations

     Representation     1      1 modes -  To be done

     Representation     2      1 modes -  To be done

     Representation     3      2 modes -  To be done

     Representation     4      2 modes -  To be done



     Alpha used in Ewald sum =   2.8000
     PHONON       :   3m45.91s CPU   3m50.03s WALL



     Representation #   1 mode #   1

     Self-consistent Calculation

      iter #   1 total cpu time :   246.4 secs   av.it.:  11.4
      thresh= 1.000E-02 alpha_mix =  0.700 |ddv_scf|^2 =  5.811E-04

      iter #   2 total cpu time :   266.1 secs   av.it.:  14.6
      thresh= 2.411E-03 alpha_mix =  0.700 |ddv_scf|^2 =  8.446E-03

      iter #   3 total cpu time :   282.2 secs   av.it.:  11.4
      thresh= 9.190E-03 alpha_mix =  0.700 |ddv_scf|^2 =  3.166E-06

      iter #   4 total cpu time :   302.4 secs   av.it.:  15.2
      thresh= 1.779E-04 alpha_mix =  0.700 |ddv_scf|^2 =  4.127E-08

      iter #   5 total cpu time :   321.8 secs   av.it.:  14.0
      thresh= 2.032E-05 alpha_mix =  0.700 |ddv_scf|^2 =  1.976E-09

      iter #   6 total cpu time :   341.9 secs   av.it.:  14.9
      thresh= 4.445E-06 alpha_mix =  0.700 |ddv_scf|^2 =  6.367E-11

      iter #   7 total cpu time :   362.4 secs   av.it.:  15.1
      thresh= 7.979E-07 alpha_mix =  0.700 |ddv_scf|^2 =  3.104E-10

      iter #   8 total cpu time :   379.5 secs   av.it.:  12.3
      thresh= 1.762E-06 alpha_mix =  0.700 |ddv_scf|^2 =  8.748E-12

      iter #   9 total cpu time :   399.7 secs   av.it.:  15.0
      thresh= 2.958E-07 alpha_mix =  0.700 |ddv_scf|^2 =  8.411E-12

      iter #  10 total cpu time :   418.0 secs   av.it.:  13.5
      thresh= 2.900E-07 alpha_mix =  0.700 |ddv_scf|^2 =  2.483E-13

      iter #  11 total cpu time :   438.2 secs   av.it.:  14.6
      thresh= 4.983E-08 alpha_mix =  0.700 |ddv_scf|^2 =  6.296E-14

     End of self-consistent calculation

     Convergence has been achieved 


     Representation #   2 mode #   2

     Self-consistent Calculation

      iter #   1 total cpu time :   450.9 secs   av.it.:   7.9
      thresh= 1.000E-02 alpha_mix =  0.700 |ddv_scf|^2 =  8.096E-05

      iter #   2 total cpu time :   469.5 secs   av.it.:  13.7
      thresh= 8.998E-04 alpha_mix =  0.700 |ddv_scf|^2 =  1.163E-03

      iter #   3 total cpu time :   485.3 secs   av.it.:  11.2
      thresh= 3.410E-03 alpha_mix =  0.700 |ddv_scf|^2 =  8.051E-08

      iter #   4 total cpu time :   504.6 secs   av.it.:  14.3
      thresh= 2.837E-05 alpha_mix =  0.700 |ddv_scf|^2 =  5.863E-09

      iter #   5 total cpu time :   524.3 secs   av.it.:  14.6
      thresh= 7.657E-06 alpha_mix =  0.700 |ddv_scf|^2 =  1.424E-11

      iter #   6 total cpu time :   544.6 secs   av.it.:  15.0
      thresh= 3.774E-07 alpha_mix =  0.700 |ddv_scf|^2 =  1.234E-12

      iter #   7 total cpu time :   564.2 secs   av.it.:  14.6
      thresh= 1.111E-07 alpha_mix =  0.700 |ddv_scf|^2 =  7.566E-12

      iter #   8 total cpu time :   581.3 secs   av.it.:  12.3
      thresh= 2.751E-07 alpha_mix =  0.700 |ddv_scf|^2 =  1.128E-13

      iter #   9 total cpu time :   601.7 secs   av.it.:  14.9
      thresh= 3.359E-08 alpha_mix =  0.700 |ddv_scf|^2 =  1.787E-14

     End of self-consistent calculation

     Convergence has been achieved 


     Representation #   3 modes #   3   4

     Self-consistent Calculation

      iter #   1 total cpu time :   624.5 secs   av.it.:   7.0
      thresh= 1.000E-02 alpha_mix =  0.700 |ddv_scf|^2 =  2.737E-08

      iter #   2 total cpu time :   670.3 secs   av.it.:  17.1
      thresh= 1.654E-05 alpha_mix =  0.700 |ddv_scf|^2 =  2.772E-09

      iter #   3 total cpu time :   716.9 secs   av.it.:  17.3
      thresh= 5.265E-06 alpha_mix =  0.700 |ddv_scf|^2 =  6.017E-11

      iter #   4 total cpu time :   763.9 secs   av.it.:  17.3
      thresh= 7.757E-07 alpha_mix =  0.700 |ddv_scf|^2 =  6.996E-13

      iter #   5 total cpu time :   807.6 secs   av.it.:  16.1
      thresh= 8.364E-08 alpha_mix =  0.700 |ddv_scf|^2 =  4.408E-15

     End of self-consistent calculation

     Convergence has been achieved 


     Representation #   4 modes #   5   6

     Self-consistent Calculation

      iter #   1 total cpu time :   840.3 secs   av.it.:  11.0
      thresh= 1.000E-02 alpha_mix =  0.700 |ddv_scf|^2 =  2.148E-06

      iter #   2 total cpu time :   888.4 secs   av.it.:  18.1
      thresh= 1.466E-04 alpha_mix =  0.700 |ddv_scf|^2 =  6.982E-07

      iter #   3 total cpu time :   934.6 secs   av.it.:  17.3
      thresh= 8.356E-05 alpha_mix =  0.700 |ddv_scf|^2 =  4.189E-10

      iter #   4 total cpu time :   979.3 secs   av.it.:  16.6
      thresh= 2.047E-06 alpha_mix =  0.700 |ddv_scf|^2 =  3.293E-11

      iter #   5 total cpu time :  1023.1 secs   av.it.:  16.2
      thresh= 5.738E-07 alpha_mix =  0.700 |ddv_scf|^2 =  3.098E-13

      iter #   6 total cpu time :  1067.1 secs   av.it.:  16.2
      thresh= 5.566E-08 alpha_mix =  0.700 |ddv_scf|^2 =  1.799E-14

     End of self-consistent calculation

     Convergence has been achieved 

     Number of q in the star =    4
     List of q in the star:
          1  -0.250000000   0.250000000  -0.250000000
          2   0.250000000  -0.250000000  -0.250000000
          3  -0.250000000  -0.250000000   0.250000000
          4   0.250000000   0.250000000   0.250000000
     In addition there is the -q list: 
          1   0.250000000  -0.250000000   0.250000000
          2  -0.250000000   0.250000000   0.250000000
          3   0.250000000   0.250000000  -0.250000000
          4  -0.250000000  -0.250000000  -0.250000000

     Diagonalizing the dynamical matrix

     q = (   -0.250000000   0.250000000  -0.250000000 ) 

 **************************************************************************
     freq (    1) =       1.565825 [THz] =      52.230291 [cm-1]
     freq (    2) =       1.565825 [THz] =      52.230291 [cm-1]
     freq (    3) =       3.663209 [THz] =     122.191506 [cm-1]
     freq (    4) =       7.440911 [THz] =     248.202090 [cm-1]
     freq (    5) =       7.440911 [THz] =     248.202090 [cm-1]
     freq (    6) =       7.754807 [THz] =     258.672530 [cm-1]
 **************************************************************************

     Mode symmetry, C_3v (3m)   point group:

     freq (   1-   2) =         52.2  [cm-1]   --> E    L_3           
     freq (   3-   3) =        122.2  [cm-1]   --> A_1  L_1           
     freq (   4-   5) =        248.2  [cm-1]   --> E    L_3           
     freq (   6-   6) =        258.7  [cm-1]   --> A_1  L_1           

     Calculation of q =    0.5000000  -0.5000000   0.5000000

     Parallelization info
     --------------------
     sticks:   dense  smooth     PW     G-vecs:    dense   smooth      PW
     Min         215     107     36                 7301     2576     484
     Max         216     108     37                 7306     2581     487
     Sum        2587    1285    433                87651    30923    5817

     Using Slab Decomposition


     Title: 
     GaAs                                                                       


     bravais-lattice index     =            2
     lattice parameter (alat)  =      10.8615  a.u.
     unit-cell volume          =     320.3354 (a.u.)^3
     number of atoms/cell      =            2
     number of atomic types    =            2
     number of electrons       =        18.00
     number of Kohn-Sham states=            9
     kinetic-energy cutoff     =      80.0000  Ry
     charge density cutoff     =     640.0000  Ry
     Exchange-correlation= PBE
                           (   1   4   3   4   0   0   0)

     celldm(1)=  10.861462  celldm(2)=   0.000000  celldm(3)=   0.000000
     celldm(4)=   0.000000  celldm(5)=   0.000000  celldm(6)=   0.000000

     crystal axes: (cart. coord. in units of alat)
               a(1) = (  -0.500000   0.000000   0.500000 )  
               a(2) = (   0.000000   0.500000   0.500000 )  
               a(3) = (  -0.500000   0.500000   0.000000 )  

     reciprocal axes: (cart. coord. in units 2 pi/alat)
               b(1) = ( -1.000000 -1.000000  1.000000 )  
               b(2) = (  1.000000  1.000000  1.000000 )  
               b(3) = ( -1.000000  1.000000 -1.000000 )  


     PseudoPot. # 1 for Ga read from file:
     /home/bonacc_m/Downloads/sg15_oncv_upf_2020-02-06/Ga_ONCV_PBE-1.2.upf
     MD5 check sum: 9961a622ff199abf6dfec9a0a10b8555
     Pseudo is Norm-conserving, Zval = 13.0
     Generated using ONCVPSP code by D. R. Hamann
     Using radial grid of  602 points,  6 beta functions with: 
                l(1) =   0
                l(2) =   0
                l(3) =   1
                l(4) =   1
                l(5) =   2
                l(6) =   2

     PseudoPot. # 2 for As read from file:
     /home/bonacc_m/Downloads/sg15_oncv_upf_2020-02-06/As_ONCV_PBE-1.2.upf
     MD5 check sum: a2ff92a4799c87c945fff9e6739df4dd
     Pseudo is Norm-conserving, Zval =  5.0
     Generated using ONCVPSP code by D. R. Hamann
     Using radial grid of  602 points,  6 beta functions with: 
                l(1) =   0
                l(2) =   0
                l(3) =   1
                l(4) =   1
                l(5) =   2
                l(6) =   2

     atomic species   valence    mass     pseudopotential
        Ga            13.00    69.72300     Ga( 1.00)
        As             5.00    74.92159     As( 1.00)

     24 Sym. Ops. (no inversion) found



   Cartesian axes

     site n.     atom                  positions (alat units)
         1           Ga  tau(   1) = (   0.0000000   0.0000000   0.0000000  )
         2           As  tau(   2) = (   0.2500000   0.2500000   0.2500000  )

     number of k points=   408

     Number of k-points >= 100: set verbosity='high' to print them.

     Dense  grid:    87651 G-vectors     FFT dimensions: (  64,  64,  64)

     Smooth grid:    30923 G-vectors     FFT dimensions: (  45,  45,  45)

     Estimated max dynamical RAM per process >       8.03 MB

     Estimated total dynamical RAM >      96.37 MB

     The potential is recalculated from file :
     /home/bonacc_m/Documents/phonons/GaAs_NAC/TMP_GaAs/_ph0/GaAs.save/charge-density

     Starting wfcs are    0 atomic +    9 random wfcs

     Band Structure Calculation
     Davidson diagonalization with overlap

     ethr =  5.56E-11,  avg # of iterations = 18.1

     total cpu time spent up to now is       76.6 secs

     End of band structure calculation

     Number of k-points >= 100: set verbosity='high' to print the bands.

     highest occupied level (ev):     6.5335

     Writing config to output data dir /home/bonacc_m/Documents/phonons/GaAs_NAC/TMP_GaAs/_ph0/GaAs.save/

     GaAs                                                                       

     bravais-lattice index     =            2
     lattice parameter (alat)  =      10.8615  a.u.
     unit-cell volume          =     320.3354 (a.u.)^3
     number of atoms/cell      =            2
     number of atomic types    =            2
     kinetic-energy cut-off    =      80.0000  Ry
     charge density cut-off    =     640.0000  Ry
     convergence threshold     =      1.0E-13
     beta                      =       0.7000
     number of iterations used =            4
     Exchange-correlation= PBE
                           (   1   4   3   4   0   0   0)


     celldm(1)=   10.86146  celldm(2)=    0.00000  celldm(3)=    0.00000
     celldm(4)=    0.00000  celldm(5)=    0.00000  celldm(6)=    0.00000

     crystal axes: (cart. coord. in units of alat)
               a(1) = ( -0.5000  0.0000  0.5000 )  
               a(2) = (  0.0000  0.5000  0.5000 )  
               a(3) = ( -0.5000  0.5000  0.0000 )  

     reciprocal axes: (cart. coord. in units 2 pi/alat)
               b(1) = ( -1.0000 -1.0000  1.0000 )  
               b(2) = (  1.0000  1.0000  1.0000 )  
               b(3) = ( -1.0000  1.0000 -1.0000 )  


     Atoms inside the unit cell: 

     Cartesian axes

     site n.  atom      mass           positions (alat units)
        1     Ga  69.7230   tau(    1) = (    0.00000    0.00000    0.00000  )
        2     As  74.9216   tau(    2) = (    0.25000    0.25000    0.25000  )

     Computing dynamical matrix for 
                    q = (   0.5000000  -0.5000000   0.5000000 )

      7 Sym.Ops. (with q -> -q+G )


     G cutoff = 1912.4796  (   7302 G-vectors)     FFT grid: ( 64, 64, 64)
     G cutoff =  956.2398  (   2577 G-vectors)  smooth grid: ( 45, 45, 45)
     number of k points=   408

     PseudoPot. # 1 for Ga read from file:
     /home/bonacc_m/Downloads/sg15_oncv_upf_2020-02-06/Ga_ONCV_PBE-1.2.upf
     MD5 check sum: 9961a622ff199abf6dfec9a0a10b8555
     Pseudo is Norm-conserving, Zval = 13.0
     Generated using ONCVPSP code by D. R. Hamann
     Using radial grid of  602 points,  6 beta functions with: 
                l(1) =   0
                l(2) =   0
                l(3) =   1
                l(4) =   1
                l(5) =   2
                l(6) =   2

     PseudoPot. # 2 for As read from file:
     /home/bonacc_m/Downloads/sg15_oncv_upf_2020-02-06/As_ONCV_PBE-1.2.upf
     MD5 check sum: a2ff92a4799c87c945fff9e6739df4dd
     Pseudo is Norm-conserving, Zval =  5.0
     Generated using ONCVPSP code by D. R. Hamann
     Using radial grid of  602 points,  6 beta functions with: 
                l(1) =   0
                l(2) =   0
                l(3) =   1
                l(4) =   1
                l(5) =   2
                l(6) =   2

     Mode symmetry, C_3v (3m)   point group:


     Atomic displacements:
     There are    4 irreducible representations

     Representation     1      1 modes -  To be done

     Representation     2      1 modes -  To be done

     Representation     3      2 modes -  To be done

     Representation     4      2 modes -  To be done



     Alpha used in Ewald sum =   2.8000
     PHONON       :  17m54.31s CPU  18m14.25s WALL



     Representation #   1 mode #   1

     Self-consistent Calculation

      iter #   1 total cpu time :  1102.5 secs   av.it.:  11.2
      thresh= 1.000E-02 alpha_mix =  0.700 |ddv_scf|^2 =  7.753E-05

      iter #   2 total cpu time :  1113.6 secs   av.it.:  15.9
      thresh= 8.805E-04 alpha_mix =  0.700 |ddv_scf|^2 =  2.269E-04

      iter #   3 total cpu time :  1123.3 secs   av.it.:  13.8
      thresh= 1.506E-03 alpha_mix =  0.700 |ddv_scf|^2 =  7.711E-07

      iter #   4 total cpu time :  1133.5 secs   av.it.:  14.8
      thresh= 8.781E-05 alpha_mix =  0.700 |ddv_scf|^2 =  3.321E-08

      iter #   5 total cpu time :  1143.5 secs   av.it.:  14.7
      thresh= 1.822E-05 alpha_mix =  0.700 |ddv_scf|^2 =  1.722E-09

      iter #   6 total cpu time :  1153.2 secs   av.it.:  14.4
      thresh= 4.150E-06 alpha_mix =  0.700 |ddv_scf|^2 =  5.468E-11

      iter #   7 total cpu time :  1163.8 secs   av.it.:  15.6
      thresh= 7.394E-07 alpha_mix =  0.700 |ddv_scf|^2 =  2.298E-11

      iter #   8 total cpu time :  1173.6 secs   av.it.:  14.6
      thresh= 4.794E-07 alpha_mix =  0.700 |ddv_scf|^2 =  7.146E-14

     End of self-consistent calculation

     Convergence has been achieved 


     Representation #   2 mode #   2

     Self-consistent Calculation

      iter #   1 total cpu time :  1180.3 secs   av.it.:   8.0
      thresh= 1.000E-02 alpha_mix =  0.700 |ddv_scf|^2 =  6.708E-06

      iter #   2 total cpu time :  1190.5 secs   av.it.:  15.1
      thresh= 2.590E-04 alpha_mix =  0.700 |ddv_scf|^2 =  1.879E-05

      iter #   3 total cpu time :  1199.9 secs   av.it.:  13.6
      thresh= 4.335E-04 alpha_mix =  0.700 |ddv_scf|^2 =  2.065E-08

      iter #   4 total cpu time :  1209.5 secs   av.it.:  13.9
      thresh= 1.437E-05 alpha_mix =  0.700 |ddv_scf|^2 =  4.484E-10

      iter #   5 total cpu time :  1219.5 secs   av.it.:  14.7
      thresh= 2.117E-06 alpha_mix =  0.700 |ddv_scf|^2 =  5.645E-12

      iter #   6 total cpu time :  1229.8 secs   av.it.:  15.2
      thresh= 2.376E-07 alpha_mix =  0.700 |ddv_scf|^2 =  1.318E-12

      iter #   7 total cpu time :  1239.7 secs   av.it.:  14.0
      thresh= 1.148E-07 alpha_mix =  0.700 |ddv_scf|^2 =  5.735E-14

     End of self-consistent calculation

     Convergence has been achieved 


     Representation #   3 modes #   3   4

     Self-consistent Calculation

      iter #   1 total cpu time :  1251.3 secs   av.it.:   7.0
      thresh= 1.000E-02 alpha_mix =  0.700 |ddv_scf|^2 =  3.282E-08

      iter #   2 total cpu time :  1275.1 secs   av.it.:  17.0
      thresh= 1.812E-05 alpha_mix =  0.700 |ddv_scf|^2 =  4.580E-09

      iter #   3 total cpu time :  1298.8 secs   av.it.:  17.2
      thresh= 6.768E-06 alpha_mix =  0.700 |ddv_scf|^2 =  7.959E-11

      iter #   4 total cpu time :  1322.3 secs   av.it.:  17.3
      thresh= 8.922E-07 alpha_mix =  0.700 |ddv_scf|^2 =  7.752E-13

      iter #   5 total cpu time :  1345.2 secs   av.it.:  16.1
      thresh= 8.805E-08 alpha_mix =  0.700 |ddv_scf|^2 =  7.665E-15

     End of self-consistent calculation

     Convergence has been achieved 


     Representation #   4 modes #   5   6

     Self-consistent Calculation

      iter #   1 total cpu time :  1362.8 secs   av.it.:  11.0
      thresh= 1.000E-02 alpha_mix =  0.700 |ddv_scf|^2 =  2.287E-06

      iter #   2 total cpu time :  1387.7 secs   av.it.:  18.0
      thresh= 1.512E-04 alpha_mix =  0.700 |ddv_scf|^2 =  8.156E-07

      iter #   3 total cpu time :  1412.5 secs   av.it.:  17.1
      thresh= 9.031E-05 alpha_mix =  0.700 |ddv_scf|^2 =  5.302E-10

      iter #   4 total cpu time :  1436.1 secs   av.it.:  16.8
      thresh= 2.303E-06 alpha_mix =  0.700 |ddv_scf|^2 =  4.117E-11

      iter #   5 total cpu time :  1459.3 secs   av.it.:  16.0
      thresh= 6.416E-07 alpha_mix =  0.700 |ddv_scf|^2 =  4.025E-13

      iter #   6 total cpu time :  1482.8 secs   av.it.:  16.3
      thresh= 6.344E-08 alpha_mix =  0.700 |ddv_scf|^2 =  2.446E-14

     End of self-consistent calculation

     Convergence has been achieved 

     Number of q in the star =    4
     List of q in the star:
          1   0.500000000  -0.500000000   0.500000000
          2  -0.500000000   0.500000000   0.500000000
          3   0.500000000   0.500000000  -0.500000000
          4  -0.500000000  -0.500000000  -0.500000000

     Diagonalizing the dynamical matrix

     q = (    0.500000000  -0.500000000   0.500000000 ) 

 **************************************************************************
     freq (    1) =       1.828174 [THz] =      60.981337 [cm-1]
     freq (    2) =       1.828174 [THz] =      60.981337 [cm-1]
     freq (    3) =       5.976013 [THz] =     199.338343 [cm-1]
     freq (    4) =       6.583998 [THz] =     219.618520 [cm-1]
     freq (    5) =       7.403941 [THz] =     246.968879 [cm-1]
     freq (    6) =       7.403941 [THz] =     246.968879 [cm-1]
 **************************************************************************

     Mode symmetry, C_3v (3m)   point group:

     freq (   1-   2) =         61.0  [cm-1]   --> E    L_3           
     freq (   3-   3) =        199.3  [cm-1]   --> A_1  L_1           
     freq (   4-   4) =        219.6  [cm-1]   --> A_1  L_1           
     freq (   5-   6) =        247.0  [cm-1]   --> E    L_3           

     Calculation of q =    0.0000000   0.5000000   0.0000000

     Parallelization info
     --------------------
     sticks:   dense  smooth     PW     G-vecs:    dense   smooth      PW
     Min         215     107     35                 7301     2576     464
     Max         216     108     36                 7306     2581     466
     Sum        2587    1285    421                87651    30923    5577

     Using Slab Decomposition


     Title: 
     GaAs                                                                       


     bravais-lattice index     =            2
     lattice parameter (alat)  =      10.8615  a.u.
     unit-cell volume          =     320.3354 (a.u.)^3
     number of atoms/cell      =            2
     number of atomic types    =            2
     number of electrons       =        18.00
     number of Kohn-Sham states=            9
     kinetic-energy cutoff     =      80.0000  Ry
     charge density cutoff     =     640.0000  Ry
     Exchange-correlation= PBE
                           (   1   4   3   4   0   0   0)

     celldm(1)=  10.861462  celldm(2)=   0.000000  celldm(3)=   0.000000
     celldm(4)=   0.000000  celldm(5)=   0.000000  celldm(6)=   0.000000

     crystal axes: (cart. coord. in units of alat)
               a(1) = (  -0.500000   0.000000   0.500000 )  
               a(2) = (   0.000000   0.500000   0.500000 )  
               a(3) = (  -0.500000   0.500000   0.000000 )  

     reciprocal axes: (cart. coord. in units 2 pi/alat)
               b(1) = ( -1.000000 -1.000000  1.000000 )  
               b(2) = (  1.000000  1.000000  1.000000 )  
               b(3) = ( -1.000000  1.000000 -1.000000 )  


     PseudoPot. # 1 for Ga read from file:
     /home/bonacc_m/Downloads/sg15_oncv_upf_2020-02-06/Ga_ONCV_PBE-1.2.upf
     MD5 check sum: 9961a622ff199abf6dfec9a0a10b8555
     Pseudo is Norm-conserving, Zval = 13.0
     Generated using ONCVPSP code by D. R. Hamann
     Using radial grid of  602 points,  6 beta functions with: 
                l(1) =   0
                l(2) =   0
                l(3) =   1
                l(4) =   1
                l(5) =   2
                l(6) =   2

     PseudoPot. # 2 for As read from file:
     /home/bonacc_m/Downloads/sg15_oncv_upf_2020-02-06/As_ONCV_PBE-1.2.upf
     MD5 check sum: a2ff92a4799c87c945fff9e6739df4dd
     Pseudo is Norm-conserving, Zval =  5.0
     Generated using ONCVPSP code by D. R. Hamann
     Using radial grid of  602 points,  6 beta functions with: 
                l(1) =   0
                l(2) =   0
                l(3) =   1
                l(4) =   1
                l(5) =   2
                l(6) =   2

     atomic species   valence    mass     pseudopotential
        Ga            13.00    69.72300     Ga( 1.00)
        As             5.00    74.92159     As( 1.00)

     24 Sym. Ops. (no inversion) found



   Cartesian axes

     site n.     atom                  positions (alat units)
         1           Ga  tau(   1) = (   0.0000000   0.0000000   0.0000000  )
         2           As  tau(   2) = (   0.2500000   0.2500000   0.2500000  )

     number of k points=  1152

     Number of k-points >= 100: set verbosity='high' to print them.

     Dense  grid:    87651 G-vectors     FFT dimensions: (  64,  64,  64)

     Smooth grid:    30923 G-vectors     FFT dimensions: (  45,  45,  45)

     Estimated max dynamical RAM per process >       7.99 MB

     Estimated total dynamical RAM >      95.93 MB

     The potential is recalculated from file :
     /home/bonacc_m/Documents/phonons/GaAs_NAC/TMP_GaAs/_ph0/GaAs.save/charge-density

     Starting wfcs are    0 atomic +    9 random wfcs

     Band Structure Calculation
     Davidson diagonalization with overlap

     ethr =  5.56E-11,  avg # of iterations = 18.1

     total cpu time spent up to now is      149.8 secs

     End of band structure calculation

     Number of k-points >= 100: set verbosity='high' to print the bands.

     highest occupied level (ev):     6.5335

     Writing config to output data dir /home/bonacc_m/Documents/phonons/GaAs_NAC/TMP_GaAs/_ph0/GaAs.save/

     GaAs                                                                       

     bravais-lattice index     =            2
     lattice parameter (alat)  =      10.8615  a.u.
     unit-cell volume          =     320.3354 (a.u.)^3
     number of atoms/cell      =            2
     number of atomic types    =            2
     kinetic-energy cut-off    =      80.0000  Ry
     charge density cut-off    =     640.0000  Ry
     convergence threshold     =      1.0E-13
     beta                      =       0.7000
     number of iterations used =            4
     Exchange-correlation= PBE
                           (   1   4   3   4   0   0   0)


     celldm(1)=   10.86146  celldm(2)=    0.00000  celldm(3)=    0.00000
     celldm(4)=    0.00000  celldm(5)=    0.00000  celldm(6)=    0.00000

     crystal axes: (cart. coord. in units of alat)
               a(1) = ( -0.5000  0.0000  0.5000 )  
               a(2) = (  0.0000  0.5000  0.5000 )  
               a(3) = ( -0.5000  0.5000  0.0000 )  

     reciprocal axes: (cart. coord. in units 2 pi/alat)
               b(1) = ( -1.0000 -1.0000  1.0000 )  
               b(2) = (  1.0000  1.0000  1.0000 )  
               b(3) = ( -1.0000  1.0000 -1.0000 )  


     Atoms inside the unit cell: 

     Cartesian axes

     site n.  atom      mass           positions (alat units)
        1     Ga  69.7230   tau(    1) = (    0.00000    0.00000    0.00000  )
        2     As  74.9216   tau(    2) = (    0.25000    0.25000    0.25000  )

     Computing dynamical matrix for 
                    q = (   0.0000000   0.5000000   0.0000000 )

      4 Sym.Ops. (no q -> -q+G )


     G cutoff = 1912.4796  (   7302 G-vectors)     FFT grid: ( 64, 64, 64)
     G cutoff =  956.2398  (   2577 G-vectors)  smooth grid: ( 45, 45, 45)
     number of k points=  1152

     PseudoPot. # 1 for Ga read from file:
     /home/bonacc_m/Downloads/sg15_oncv_upf_2020-02-06/Ga_ONCV_PBE-1.2.upf
     MD5 check sum: 9961a622ff199abf6dfec9a0a10b8555
     Pseudo is Norm-conserving, Zval = 13.0
     Generated using ONCVPSP code by D. R. Hamann
     Using radial grid of  602 points,  6 beta functions with: 
                l(1) =   0
                l(2) =   0
                l(3) =   1
                l(4) =   1
                l(5) =   2
                l(6) =   2

     PseudoPot. # 2 for As read from file:
     /home/bonacc_m/Downloads/sg15_oncv_upf_2020-02-06/As_ONCV_PBE-1.2.upf
     MD5 check sum: a2ff92a4799c87c945fff9e6739df4dd
     Pseudo is Norm-conserving, Zval =  5.0
     Generated using ONCVPSP code by D. R. Hamann
     Using radial grid of  602 points,  6 beta functions with: 
                l(1) =   0
                l(2) =   0
                l(3) =   1
                l(4) =   1
                l(5) =   2
                l(6) =   2

     Mode symmetry, C_2v (mm2)  point group:


     Atomic displacements:
     There are    6 irreducible representations

     Representation     1      1 modes -  To be done

     Representation     2      1 modes -  To be done

     Representation     3      1 modes -  To be done

     Representation     4      1 modes -  To be done

     Representation     5      1 modes -  To be done

     Representation     6      1 modes -  To be done



     Alpha used in Ewald sum =   2.8000
     PHONON       :  25m30.11s CPU  25m58.50s WALL



     Representation #   1 mode #   1

     Self-consistent Calculation

      iter #   1 total cpu time :  1576.8 secs   av.it.:   7.5
      thresh= 1.000E-02 alpha_mix =  0.700 |ddv_scf|^2 =  5.055E-05

      iter #   2 total cpu time :  1611.5 secs   av.it.:  13.8
      thresh= 7.110E-04 alpha_mix =  0.700 |ddv_scf|^2 =  6.454E-04

      iter #   3 total cpu time :  1634.5 secs   av.it.:  11.3
      thresh= 2.541E-03 alpha_mix =  0.700 |ddv_scf|^2 =  2.114E-08

      iter #   4 total cpu time :  1664.2 secs   av.it.:  15.2
      thresh= 1.454E-05 alpha_mix =  0.700 |ddv_scf|^2 =  3.053E-09

      iter #   5 total cpu time :  1694.5 secs   av.it.:  14.8
      thresh= 5.525E-06 alpha_mix =  0.700 |ddv_scf|^2 =  1.329E-11

      iter #   6 total cpu time :  1725.0 secs   av.it.:  15.0
      thresh= 3.645E-07 alpha_mix =  0.700 |ddv_scf|^2 =  1.058E-12

      iter #   7 total cpu time :  1753.4 secs   av.it.:  13.9
      thresh= 1.029E-07 alpha_mix =  0.700 |ddv_scf|^2 =  8.558E-14

     End of self-consistent calculation

     Convergence has been achieved 


     Representation #   2 mode #   2

     Self-consistent Calculation

      iter #   1 total cpu time :  1779.6 secs   av.it.:  11.3
      thresh= 1.000E-02 alpha_mix =  0.700 |ddv_scf|^2 =  3.519E-04

      iter #   2 total cpu time :  1810.3 secs   av.it.:  14.9
      thresh= 1.876E-03 alpha_mix =  0.700 |ddv_scf|^2 =  4.340E-03

      iter #   3 total cpu time :  1834.8 secs   av.it.:  11.6
      thresh= 6.588E-03 alpha_mix =  0.700 |ddv_scf|^2 =  1.656E-06

      iter #   4 total cpu time :  1867.6 secs   av.it.:  15.7
      thresh= 1.287E-04 alpha_mix =  0.700 |ddv_scf|^2 =  9.036E-09

      iter #   5 total cpu time :  1900.8 secs   av.it.:  15.1
      thresh= 9.506E-06 alpha_mix =  0.700 |ddv_scf|^2 =  1.222E-09

      iter #   6 total cpu time :  1932.3 secs   av.it.:  15.0
      thresh= 3.496E-06 alpha_mix =  0.700 |ddv_scf|^2 =  3.776E-11

      iter #   7 total cpu time :  1961.5 secs   av.it.:  14.1
      thresh= 6.145E-07 alpha_mix =  0.700 |ddv_scf|^2 =  9.710E-13

      iter #   8 total cpu time :  1992.9 secs   av.it.:  15.5
      thresh= 9.854E-08 alpha_mix =  0.700 |ddv_scf|^2 =  1.451E-12

      iter #   9 total cpu time :  2021.9 secs   av.it.:  13.9
      thresh= 1.204E-07 alpha_mix =  0.700 |ddv_scf|^2 =  9.390E-13

      iter #  10 total cpu time :  2050.3 secs   av.it.:  13.8
      thresh= 9.690E-08 alpha_mix =  0.700 |ddv_scf|^2 =  5.856E-14

     End of self-consistent calculation

     Convergence has been achieved 


     Representation #   3 mode #   3

     Self-consistent Calculation

      iter #   1 total cpu time :  2074.5 secs   av.it.:  10.9
      thresh= 1.000E-02 alpha_mix =  0.700 |ddv_scf|^2 =  1.036E-05

      iter #   2 total cpu time :  2108.4 secs   av.it.:  16.7
      thresh= 3.218E-04 alpha_mix =  0.700 |ddv_scf|^2 =  4.469E-06

      iter #   3 total cpu time :  2140.4 secs   av.it.:  15.8
      thresh= 2.114E-04 alpha_mix =  0.700 |ddv_scf|^2 =  3.258E-09

      iter #   4 total cpu time :  2172.1 secs   av.it.:  15.8
      thresh= 5.708E-06 alpha_mix =  0.700 |ddv_scf|^2 =  2.074E-10

      iter #   5 total cpu time :  2202.9 secs   av.it.:  14.8
      thresh= 1.440E-06 alpha_mix =  0.700 |ddv_scf|^2 =  1.139E-12

      iter #   6 total cpu time :  2232.0 secs   av.it.:  14.1
      thresh= 1.067E-07 alpha_mix =  0.700 |ddv_scf|^2 =  6.258E-14

     End of self-consistent calculation

     Convergence has been achieved 


     Representation #   4 mode #   4

     Self-consistent Calculation

      iter #   1 total cpu time :  2250.6 secs   av.it.:   7.0
      thresh= 1.000E-02 alpha_mix =  0.700 |ddv_scf|^2 =  1.846E-07

      iter #   2 total cpu time :  2283.2 secs   av.it.:  15.8
      thresh= 4.297E-05 alpha_mix =  0.700 |ddv_scf|^2 =  3.871E-08

      iter #   3 total cpu time :  2316.4 secs   av.it.:  15.7
      thresh= 1.968E-05 alpha_mix =  0.700 |ddv_scf|^2 =  3.870E-10

      iter #   4 total cpu time :  2349.2 secs   av.it.:  15.9
      thresh= 1.967E-06 alpha_mix =  0.700 |ddv_scf|^2 =  3.335E-12

      iter #   5 total cpu time :  2378.9 secs   av.it.:  14.6
      thresh= 1.826E-07 alpha_mix =  0.700 |ddv_scf|^2 =  1.410E-14

     End of self-consistent calculation

     Convergence has been achieved 


     Representation #   5 mode #   5

     Self-consistent Calculation

      iter #   1 total cpu time :  2396.2 secs   av.it.:   7.0
      thresh= 1.000E-02 alpha_mix =  0.700 |ddv_scf|^2 =  1.846E-07

      iter #   2 total cpu time :  2428.2 secs   av.it.:  15.8
      thresh= 4.297E-05 alpha_mix =  0.700 |ddv_scf|^2 =  3.871E-08

      iter #   3 total cpu time :  2460.6 secs   av.it.:  15.7
      thresh= 1.968E-05 alpha_mix =  0.700 |ddv_scf|^2 =  3.870E-10

      iter #   4 total cpu time :  2492.5 secs   av.it.:  15.9
      thresh= 1.967E-06 alpha_mix =  0.700 |ddv_scf|^2 =  3.335E-12

      iter #   5 total cpu time :  2521.9 secs   av.it.:  14.6
      thresh= 1.826E-07 alpha_mix =  0.700 |ddv_scf|^2 =  1.410E-14

     End of self-consistent calculation

     Convergence has been achieved 


     Representation #   6 mode #   6

     Self-consistent Calculation

      iter #   1 total cpu time :  2546.1 secs   av.it.:  10.9
      thresh= 1.000E-02 alpha_mix =  0.700 |ddv_scf|^2 =  1.036E-05

      iter #   2 total cpu time :  2579.9 secs   av.it.:  16.7
      thresh= 3.218E-04 alpha_mix =  0.700 |ddv_scf|^2 =  4.469E-06

      iter #   3 total cpu time :  2612.2 secs   av.it.:  15.8
      thresh= 2.114E-04 alpha_mix =  0.700 |ddv_scf|^2 =  3.257E-09

      iter #   4 total cpu time :  2644.7 secs   av.it.:  15.8
      thresh= 5.707E-06 alpha_mix =  0.700 |ddv_scf|^2 =  2.073E-10

      iter #   5 total cpu time :  2675.4 secs   av.it.:  14.8
      thresh= 1.440E-06 alpha_mix =  0.700 |ddv_scf|^2 =  1.139E-12

      iter #   6 total cpu time :  2705.7 secs   av.it.:  14.2
      thresh= 1.067E-07 alpha_mix =  0.700 |ddv_scf|^2 =  6.256E-14

     End of self-consistent calculation

     Convergence has been achieved 

     Number of q in the star =    6
     List of q in the star:
          1   0.000000000   0.500000000   0.000000000
          2  -0.500000000   0.000000000   0.000000000
          3   0.000000000  -0.500000000   0.000000000
          4   0.000000000   0.000000000   0.500000000
          5   0.000000000   0.000000000  -0.500000000
          6   0.500000000   0.000000000   0.000000000

     Diagonalizing the dynamical matrix

     q = (    0.000000000   0.500000000   0.000000000 ) 

 **************************************************************************
     freq (    1) =       2.078180 [THz] =      69.320624 [cm-1]
     freq (    2) =       2.078180 [THz] =      69.320624 [cm-1]
     freq (    3) =       3.733111 [THz] =     124.523178 [cm-1]
     freq (    4) =       7.186205 [THz] =     239.705987 [cm-1]
     freq (    5) =       7.186205 [THz] =     239.705987 [cm-1]
     freq (    6) =       7.840270 [THz] =     261.523249 [cm-1]
 **************************************************************************

     Mode symmetry, C_2v (mm2)  point group:

     freq (   1-   1) =         69.3  [cm-1]   --> B_1  D_3  S_3      
     freq (   2-   2) =         69.3  [cm-1]   --> B_2  D_4  S_4      
     freq (   3-   3) =        124.5  [cm-1]   --> A_1  D_1  S_1      
     freq (   4-   4) =        239.7  [cm-1]   --> B_1  D_3  S_3      
     freq (   5-   5) =        239.7  [cm-1]   --> B_2  D_4  S_4      
     freq (   6-   6) =        261.5  [cm-1]   --> A_1  D_1  S_1      

     Calculation of q =    0.7500000  -0.2500000   0.7500000

     Parallelization info
     --------------------
     sticks:   dense  smooth     PW     G-vecs:    dense   smooth      PW
     Min         215     107     36                 7301     2576     498
     Max         216     108     37                 7306     2581     501
     Sum        2587    1285    433                87651    30923    5985

     Using Slab Decomposition


     Title: 
     GaAs                                                                       


     bravais-lattice index     =            2
     lattice parameter (alat)  =      10.8615  a.u.
     unit-cell volume          =     320.3354 (a.u.)^3
     number of atoms/cell      =            2
     number of atomic types    =            2
     number of electrons       =        18.00
     number of Kohn-Sham states=            9
     kinetic-energy cutoff     =      80.0000  Ry
     charge density cutoff     =     640.0000  Ry
     Exchange-correlation= PBE
                           (   1   4   3   4   0   0   0)

     celldm(1)=  10.861462  celldm(2)=   0.000000  celldm(3)=   0.000000
     celldm(4)=   0.000000  celldm(5)=   0.000000  celldm(6)=   0.000000

     crystal axes: (cart. coord. in units of alat)
               a(1) = (  -0.500000   0.000000   0.500000 )  
               a(2) = (   0.000000   0.500000   0.500000 )  
               a(3) = (  -0.500000   0.500000   0.000000 )  

     reciprocal axes: (cart. coord. in units 2 pi/alat)
               b(1) = ( -1.000000 -1.000000  1.000000 )  
               b(2) = (  1.000000  1.000000  1.000000 )  
               b(3) = ( -1.000000  1.000000 -1.000000 )  


     PseudoPot. # 1 for Ga read from file:
     /home/bonacc_m/Downloads/sg15_oncv_upf_2020-02-06/Ga_ONCV_PBE-1.2.upf
     MD5 check sum: 9961a622ff199abf6dfec9a0a10b8555
     Pseudo is Norm-conserving, Zval = 13.0
     Generated using ONCVPSP code by D. R. Hamann
     Using radial grid of  602 points,  6 beta functions with: 
                l(1) =   0
                l(2) =   0
                l(3) =   1
                l(4) =   1
                l(5) =   2
                l(6) =   2

     PseudoPot. # 2 for As read from file:
     /home/bonacc_m/Downloads/sg15_oncv_upf_2020-02-06/As_ONCV_PBE-1.2.upf
     MD5 check sum: a2ff92a4799c87c945fff9e6739df4dd
     Pseudo is Norm-conserving, Zval =  5.0
     Generated using ONCVPSP code by D. R. Hamann
     Using radial grid of  602 points,  6 beta functions with: 
                l(1) =   0
                l(2) =   0
                l(3) =   1
                l(4) =   1
                l(5) =   2
                l(6) =   2

     atomic species   valence    mass     pseudopotential
        Ga            13.00    69.72300     Ga( 1.00)
        As             5.00    74.92159     As( 1.00)

     24 Sym. Ops. (no inversion) found



   Cartesian axes

     site n.     atom                  positions (alat units)
         1           Ga  tau(   1) = (   0.0000000   0.0000000   0.0000000  )
         2           As  tau(   2) = (   0.2500000   0.2500000   0.2500000  )

     number of k points=  2176

     Number of k-points >= 100: set verbosity='high' to print them.

     Dense  grid:    87651 G-vectors     FFT dimensions: (  64,  64,  64)

     Smooth grid:    30923 G-vectors     FFT dimensions: (  45,  45,  45)

     Estimated max dynamical RAM per process >       8.05 MB

     Estimated total dynamical RAM >      96.64 MB

     The potential is recalculated from file :
     /home/bonacc_m/Documents/phonons/GaAs_NAC/TMP_GaAs/_ph0/GaAs.save/charge-density

     Starting wfcs are    0 atomic +    9 random wfcs

     Band Structure Calculation
     Davidson diagonalization with overlap

     ethr =  5.56E-11,  avg # of iterations = 18.0

     total cpu time spent up to now is      294.1 secs

     End of band structure calculation

     Number of k-points >= 100: set verbosity='high' to print the bands.

     highest occupied level (ev):     6.5335

     Writing config to output data dir /home/bonacc_m/Documents/phonons/GaAs_NAC/TMP_GaAs/_ph0/GaAs.save/

     GaAs                                                                       

     bravais-lattice index     =            2
     lattice parameter (alat)  =      10.8615  a.u.
     unit-cell volume          =     320.3354 (a.u.)^3
     number of atoms/cell      =            2
     number of atomic types    =            2
     kinetic-energy cut-off    =      80.0000  Ry
     charge density cut-off    =     640.0000  Ry
     convergence threshold     =      1.0E-13
     beta                      =       0.7000
     number of iterations used =            4
     Exchange-correlation= PBE
                           (   1   4   3   4   0   0   0)


     celldm(1)=   10.86146  celldm(2)=    0.00000  celldm(3)=    0.00000
     celldm(4)=    0.00000  celldm(5)=    0.00000  celldm(6)=    0.00000

     crystal axes: (cart. coord. in units of alat)
               a(1) = ( -0.5000  0.0000  0.5000 )  
               a(2) = (  0.0000  0.5000  0.5000 )  
               a(3) = ( -0.5000  0.5000  0.0000 )  

     reciprocal axes: (cart. coord. in units 2 pi/alat)
               b(1) = ( -1.0000 -1.0000  1.0000 )  
               b(2) = (  1.0000  1.0000  1.0000 )  
               b(3) = ( -1.0000  1.0000 -1.0000 )  


     Atoms inside the unit cell: 

     Cartesian axes

     site n.  atom      mass           positions (alat units)
        1     Ga  69.7230   tau(    1) = (    0.00000    0.00000    0.00000  )
        2     As  74.9216   tau(    2) = (    0.25000    0.25000    0.25000  )

     Computing dynamical matrix for 
                    q = (   0.7500000  -0.2500000   0.7500000 )

      2 Sym.Ops. (no q -> -q+G )


     G cutoff = 1912.4796  (   7302 G-vectors)     FFT grid: ( 64, 64, 64)
     G cutoff =  956.2398  (   2577 G-vectors)  smooth grid: ( 45, 45, 45)
     number of k points=  2176

     PseudoPot. # 1 for Ga read from file:
     /home/bonacc_m/Downloads/sg15_oncv_upf_2020-02-06/Ga_ONCV_PBE-1.2.upf
     MD5 check sum: 9961a622ff199abf6dfec9a0a10b8555
     Pseudo is Norm-conserving, Zval = 13.0
     Generated using ONCVPSP code by D. R. Hamann
     Using radial grid of  602 points,  6 beta functions with: 
                l(1) =   0
                l(2) =   0
                l(3) =   1
                l(4) =   1
                l(5) =   2
                l(6) =   2

     PseudoPot. # 2 for As read from file:
     /home/bonacc_m/Downloads/sg15_oncv_upf_2020-02-06/As_ONCV_PBE-1.2.upf
     MD5 check sum: a2ff92a4799c87c945fff9e6739df4dd
     Pseudo is Norm-conserving, Zval =  5.0
     Generated using ONCVPSP code by D. R. Hamann
     Using radial grid of  602 points,  6 beta functions with: 
                l(1) =   0
                l(2) =   0
                l(3) =   1
                l(4) =   1
                l(5) =   2
                l(6) =   2

     Mode symmetry, C_s (m)     point group:


     Atomic displacements:
     There are    6 irreducible representations

     Representation     1      1 modes -  To be done

     Representation     2      1 modes -  To be done

     Representation     3      1 modes -  To be done

     Representation     4      1 modes -  To be done

     Representation     5      1 modes -  To be done

     Representation     6      1 modes -  To be done



     Alpha used in Ewald sum =   2.8000
     PHONON       :  46m40.17s CPU  47m34.45s WALL



     Representation #   1 mode #   1

     Self-consistent Calculation

      iter #   1 total cpu time :  2902.2 secs   av.it.:  11.3
      thresh= 1.000E-02 alpha_mix =  0.700 |ddv_scf|^2 =  5.542E-05

      iter #   2 total cpu time :  2963.5 secs   av.it.:  16.1
      thresh= 7.445E-04 alpha_mix =  0.700 |ddv_scf|^2 =  1.463E-04

      iter #   3 total cpu time :  3018.8 secs   av.it.:  14.0
      thresh= 1.210E-03 alpha_mix =  0.700 |ddv_scf|^2 =  1.230E-06

      iter #   4 total cpu time :  3077.1 secs   av.it.:  15.0
      thresh= 1.109E-04 alpha_mix =  0.700 |ddv_scf|^2 =  3.330E-08

      iter #   5 total cpu time :  3137.1 secs   av.it.:  15.2
      thresh= 1.825E-05 alpha_mix =  0.700 |ddv_scf|^2 =  2.353E-09

      iter #   6 total cpu time :  3194.7 secs   av.it.:  14.8
      thresh= 4.850E-06 alpha_mix =  0.700 |ddv_scf|^2 =  1.279E-10

      iter #   7 total cpu time :  3253.5 secs   av.it.:  15.5
      thresh= 1.131E-06 alpha_mix =  0.700 |ddv_scf|^2 =  2.091E-11

      iter #   8 total cpu time :  3312.4 secs   av.it.:  15.3
      thresh= 4.573E-07 alpha_mix =  0.700 |ddv_scf|^2 =  4.322E-12

      iter #   9 total cpu time :  3371.0 secs   av.it.:  15.1
      thresh= 2.079E-07 alpha_mix =  0.700 |ddv_scf|^2 =  2.121E-13

      iter #  10 total cpu time :  3430.3 secs   av.it.:  15.9
      thresh= 4.606E-08 alpha_mix =  0.700 |ddv_scf|^2 =  1.934E-13

      iter #  11 total cpu time :  3480.3 secs   av.it.:  13.8
      thresh= 4.398E-08 alpha_mix =  0.700 |ddv_scf|^2 =  7.785E-15

     End of self-consistent calculation

     Convergence has been achieved 


     Representation #   2 mode #   2

     Self-consistent Calculation

      iter #   1 total cpu time :  3513.4 secs   av.it.:   7.8
      thresh= 1.000E-02 alpha_mix =  0.700 |ddv_scf|^2 =  2.747E-06

      iter #   2 total cpu time :  3568.0 secs   av.it.:  15.1
      thresh= 1.657E-04 alpha_mix =  0.700 |ddv_scf|^2 =  7.077E-06

      iter #   3 total cpu time :  3617.3 secs   av.it.:  13.6
      thresh= 2.660E-04 alpha_mix =  0.700 |ddv_scf|^2 =  3.490E-08

      iter #   4 total cpu time :  3669.9 secs   av.it.:  14.8
      thresh= 1.868E-05 alpha_mix =  0.700 |ddv_scf|^2 =  4.943E-10

      iter #   5 total cpu time :  3724.8 secs   av.it.:  15.3
      thresh= 2.223E-06 alpha_mix =  0.700 |ddv_scf|^2 =  3.572E-11

      iter #   6 total cpu time :  3778.9 secs   av.it.:  15.0
      thresh= 5.976E-07 alpha_mix =  0.700 |ddv_scf|^2 =  2.815E-12

      iter #   7 total cpu time :  3833.0 secs   av.it.:  15.2
      thresh= 1.678E-07 alpha_mix =  0.700 |ddv_scf|^2 =  4.485E-13

      iter #   8 total cpu time :  3886.1 secs   av.it.:  14.9
      thresh= 6.697E-08 alpha_mix =  0.700 |ddv_scf|^2 =  1.163E-14

     End of self-consistent calculation

     Convergence has been achieved 


     Representation #   3 mode #   3

     Self-consistent Calculation

      iter #   1 total cpu time :  3918.4 secs   av.it.:   7.4
      thresh= 1.000E-02 alpha_mix =  0.700 |ddv_scf|^2 =  2.560E-06

      iter #   2 total cpu time :  3973.6 secs   av.it.:  15.1
      thresh= 1.600E-04 alpha_mix =  0.700 |ddv_scf|^2 =  6.119E-06

      iter #   3 total cpu time :  4023.0 secs   av.it.:  13.5
      thresh= 2.474E-04 alpha_mix =  0.700 |ddv_scf|^2 =  6.141E-08

      iter #   4 total cpu time :  4074.7 secs   av.it.:  14.2
      thresh= 2.478E-05 alpha_mix =  0.700 |ddv_scf|^2 =  5.163E-10

      iter #   5 total cpu time :  4130.0 secs   av.it.:  15.1
      thresh= 2.272E-06 alpha_mix =  0.700 |ddv_scf|^2 =  2.163E-11

      iter #   6 total cpu time :  4185.9 secs   av.it.:  15.4
      thresh= 4.651E-07 alpha_mix =  0.700 |ddv_scf|^2 =  1.460E-12

      iter #   7 total cpu time :  4241.6 secs   av.it.:  15.5
      thresh= 1.208E-07 alpha_mix =  0.700 |ddv_scf|^2 =  2.678E-13

      iter #   8 total cpu time :  4295.8 secs   av.it.:  15.0
      thresh= 5.175E-08 alpha_mix =  0.700 |ddv_scf|^2 =  7.977E-15

     End of self-consistent calculation

     Convergence has been achieved 


     Representation #   4 mode #   4

     Self-consistent Calculation

      iter #   1 total cpu time :  4339.7 secs   av.it.:  11.1
      thresh= 1.000E-02 alpha_mix =  0.700 |ddv_scf|^2 =  1.798E-05

      iter #   2 total cpu time :  4399.6 secs   av.it.:  16.7
      thresh= 4.241E-04 alpha_mix =  0.700 |ddv_scf|^2 =  1.997E-05

      iter #   3 total cpu time :  4453.7 secs   av.it.:  14.9
      thresh= 4.468E-04 alpha_mix =  0.700 |ddv_scf|^2 =  1.102E-06

      iter #   4 total cpu time :  4505.9 secs   av.it.:  14.5
      thresh= 1.050E-04 alpha_mix =  0.700 |ddv_scf|^2 =  2.207E-08

      iter #   5 total cpu time :  4560.6 secs   av.it.:  15.1
      thresh= 1.485E-05 alpha_mix =  0.700 |ddv_scf|^2 =  1.726E-09

      iter #   6 total cpu time :  4615.0 secs   av.it.:  14.9
      thresh= 4.154E-06 alpha_mix =  0.700 |ddv_scf|^2 =  1.905E-10

      iter #   7 total cpu time :  4670.3 secs   av.it.:  15.2
      thresh= 1.380E-06 alpha_mix =  0.700 |ddv_scf|^2 =  1.653E-11

      iter #   8 total cpu time :  4725.2 secs   av.it.:  15.3
      thresh= 4.065E-07 alpha_mix =  0.700 |ddv_scf|^2 =  1.799E-12

      iter #   9 total cpu time :  4782.7 secs   av.it.:  15.9
      thresh= 1.341E-07 alpha_mix =  0.700 |ddv_scf|^2 =  3.015E-13

      iter #  10 total cpu time :  4840.3 secs   av.it.:  15.7
      thresh= 5.490E-08 alpha_mix =  0.700 |ddv_scf|^2 =  2.032E-13

      iter #  11 total cpu time :  4891.5 secs   av.it.:  14.0
      thresh= 4.508E-08 alpha_mix =  0.700 |ddv_scf|^2 =  7.236E-15

     End of self-consistent calculation

     Convergence has been achieved 


     Representation #   5 mode #   5

     Self-consistent Calculation

      iter #   1 total cpu time :  4923.3 secs   av.it.:   7.1
      thresh= 1.000E-02 alpha_mix =  0.700 |ddv_scf|^2 =  2.160E-07

      iter #   2 total cpu time :  4980.8 secs   av.it.:  15.9
      thresh= 4.647E-05 alpha_mix =  0.700 |ddv_scf|^2 =  5.430E-08

      iter #   3 total cpu time :  5037.5 secs   av.it.:  15.8
      thresh= 2.330E-05 alpha_mix =  0.700 |ddv_scf|^2 =  4.156E-10

      iter #   4 total cpu time :  5095.6 secs   av.it.:  15.9
      thresh= 2.039E-06 alpha_mix =  0.700 |ddv_scf|^2 =  3.469E-12

      iter #   5 total cpu time :  5148.8 secs   av.it.:  14.7
      thresh= 1.863E-07 alpha_mix =  0.700 |ddv_scf|^2 =  1.869E-14

     End of self-consistent calculation

     Convergence has been achieved 


     Representation #   6 mode #   6

     Self-consistent Calculation

      iter #   1 total cpu time :  5192.2 secs   av.it.:  10.9
      thresh= 1.000E-02 alpha_mix =  0.700 |ddv_scf|^2 =  1.110E-05

      iter #   2 total cpu time :  5252.0 secs   av.it.:  16.8
      thresh= 3.332E-04 alpha_mix =  0.700 |ddv_scf|^2 =  5.257E-06

      iter #   3 total cpu time :  5308.9 secs   av.it.:  15.8
      thresh= 2.293E-04 alpha_mix =  0.700 |ddv_scf|^2 =  4.043E-09

      iter #   4 total cpu time :  5366.3 secs   av.it.:  15.9
      thresh= 6.358E-06 alpha_mix =  0.700 |ddv_scf|^2 =  2.180E-10

      iter #   5 total cpu time :  5420.3 secs   av.it.:  14.9
      thresh= 1.477E-06 alpha_mix =  0.700 |ddv_scf|^2 =  1.244E-12

      iter #   6 total cpu time :  5471.4 secs   av.it.:  14.0
      thresh= 1.116E-07 alpha_mix =  0.700 |ddv_scf|^2 =  7.830E-14

     End of self-consistent calculation

     Convergence has been achieved 

     Number of q in the star =   12
     List of q in the star:
          1   0.750000000  -0.250000000   0.750000000
          2  -0.750000000  -0.250000000  -0.750000000
          3   0.250000000  -0.750000000   0.750000000
          4  -0.750000000   0.250000000   0.750000000
          5   0.750000000   0.250000000  -0.750000000
          6   0.750000000   0.750000000  -0.250000000
          7  -0.750000000  -0.750000000  -0.250000000
          8  -0.750000000   0.750000000   0.250000000
          9  -0.250000000   0.750000000   0.750000000
         10   0.250000000   0.750000000  -0.750000000
         11  -0.250000000  -0.750000000  -0.750000000
         12   0.750000000  -0.750000000   0.250000000
     In addition there is the -q list: 
          1  -0.750000000   0.250000000  -0.750000000
          2   0.750000000   0.250000000   0.750000000
          3  -0.250000000   0.750000000  -0.750000000
          4   0.750000000  -0.250000000  -0.750000000
          5  -0.750000000  -0.250000000   0.750000000
          6  -0.750000000  -0.750000000   0.250000000
          7   0.750000000   0.750000000   0.250000000
          8   0.750000000  -0.750000000  -0.250000000
          9   0.250000000  -0.750000000  -0.750000000
         10  -0.250000000  -0.750000000   0.750000000
         11   0.250000000   0.750000000   0.750000000
         12  -0.750000000   0.750000000  -0.250000000

     Diagonalizing the dynamical matrix

     q = (    0.750000000  -0.250000000   0.750000000 ) 

 **************************************************************************
     freq (    1) =       2.296830 [THz] =      76.613996 [cm-1]
     freq (    2) =       2.895355 [THz] =      96.578659 [cm-1]
     freq (    3) =       5.072278 [THz] =     169.192979 [cm-1]
     freq (    4) =       6.582099 [THz] =     219.555189 [cm-1]
     freq (    5) =       7.133964 [THz] =     237.963423 [cm-1]
     freq (    6) =       7.462947 [THz] =     248.937107 [cm-1]
 **************************************************************************

     Mode symmetry, C_s (m)     point group:

     freq (   1-   1) =         76.6  [cm-1]   --> A''                
     freq (   2-   2) =         96.6  [cm-1]   --> A'                 
     freq (   3-   3) =        169.2  [cm-1]   --> A'                 
     freq (   4-   4) =        219.6  [cm-1]   --> A'                 
     freq (   5-   5) =        238.0  [cm-1]   --> A''                
     freq (   6-   6) =        248.9  [cm-1]   --> A'                 

     Calculation of q =    0.5000000   0.0000000   0.5000000

     Parallelization info
     --------------------
     sticks:   dense  smooth     PW     G-vecs:    dense   smooth      PW
     Min         215     107     35                 7301     2576     472
     Max         216     108     36                 7306     2581     475
     Sum        2587    1285    421                87651    30923    5673

     Using Slab Decomposition


     Title: 
     GaAs                                                                       


     bravais-lattice index     =            2
     lattice parameter (alat)  =      10.8615  a.u.
     unit-cell volume          =     320.3354 (a.u.)^3
     number of atoms/cell      =            2
     number of atomic types    =            2
     number of electrons       =        18.00
     number of Kohn-Sham states=            9
     kinetic-energy cutoff     =      80.0000  Ry
     charge density cutoff     =     640.0000  Ry
     Exchange-correlation= PBE
                           (   1   4   3   4   0   0   0)

     celldm(1)=  10.861462  celldm(2)=   0.000000  celldm(3)=   0.000000
     celldm(4)=   0.000000  celldm(5)=   0.000000  celldm(6)=   0.000000

     crystal axes: (cart. coord. in units of alat)
               a(1) = (  -0.500000   0.000000   0.500000 )  
               a(2) = (   0.000000   0.500000   0.500000 )  
               a(3) = (  -0.500000   0.500000   0.000000 )  

     reciprocal axes: (cart. coord. in units 2 pi/alat)
               b(1) = ( -1.000000 -1.000000  1.000000 )  
               b(2) = (  1.000000  1.000000  1.000000 )  
               b(3) = ( -1.000000  1.000000 -1.000000 )  


     PseudoPot. # 1 for Ga read from file:
     /home/bonacc_m/Downloads/sg15_oncv_upf_2020-02-06/Ga_ONCV_PBE-1.2.upf
     MD5 check sum: 9961a622ff199abf6dfec9a0a10b8555
     Pseudo is Norm-conserving, Zval = 13.0
     Generated using ONCVPSP code by D. R. Hamann
     Using radial grid of  602 points,  6 beta functions with: 
                l(1) =   0
                l(2) =   0
                l(3) =   1
                l(4) =   1
                l(5) =   2
                l(6) =   2

     PseudoPot. # 2 for As read from file:
     /home/bonacc_m/Downloads/sg15_oncv_upf_2020-02-06/As_ONCV_PBE-1.2.upf
     MD5 check sum: a2ff92a4799c87c945fff9e6739df4dd
     Pseudo is Norm-conserving, Zval =  5.0
     Generated using ONCVPSP code by D. R. Hamann
     Using radial grid of  602 points,  6 beta functions with: 
                l(1) =   0
                l(2) =   0
                l(3) =   1
                l(4) =   1
                l(5) =   2
                l(6) =   2

     atomic species   valence    mass     pseudopotential
        Ga            13.00    69.72300     Ga( 1.00)
        As             5.00    74.92159     As( 1.00)

     24 Sym. Ops. (no inversion) found



   Cartesian axes

     site n.     atom                  positions (alat units)
         1           Ga  tau(   1) = (   0.0000000   0.0000000   0.0000000  )
         2           As  tau(   2) = (   0.2500000   0.2500000   0.2500000  )

     number of k points=  2176

     Number of k-points >= 100: set verbosity='high' to print them.

     Dense  grid:    87651 G-vectors     FFT dimensions: (  64,  64,  64)

     Smooth grid:    30923 G-vectors     FFT dimensions: (  45,  45,  45)

     Estimated max dynamical RAM per process >       8.01 MB

     Estimated total dynamical RAM >      96.18 MB

     The potential is recalculated from file :
     /home/bonacc_m/Documents/phonons/GaAs_NAC/TMP_GaAs/_ph0/GaAs.save/charge-density

     Starting wfcs are    0 atomic +    9 random wfcs

     Band Structure Calculation
     Davidson diagonalization with overlap

     ethr =  5.56E-11,  avg # of iterations = 18.0

     total cpu time spent up to now is      428.9 secs

     End of band structure calculation

     Number of k-points >= 100: set verbosity='high' to print the bands.

     highest occupied level (ev):     6.5335

     Writing config to output data dir /home/bonacc_m/Documents/phonons/GaAs_NAC/TMP_GaAs/_ph0/GaAs.save/

     GaAs                                                                       

     bravais-lattice index     =            2
     lattice parameter (alat)  =      10.8615  a.u.
     unit-cell volume          =     320.3354 (a.u.)^3
     number of atoms/cell      =            2
     number of atomic types    =            2
     kinetic-energy cut-off    =      80.0000  Ry
     charge density cut-off    =     640.0000  Ry
     convergence threshold     =      1.0E-13
     beta                      =       0.7000
     number of iterations used =            4
     Exchange-correlation= PBE
                           (   1   4   3   4   0   0   0)


     celldm(1)=   10.86146  celldm(2)=    0.00000  celldm(3)=    0.00000
     celldm(4)=    0.00000  celldm(5)=    0.00000  celldm(6)=    0.00000

     crystal axes: (cart. coord. in units of alat)
               a(1) = ( -0.5000  0.0000  0.5000 )  
               a(2) = (  0.0000  0.5000  0.5000 )  
               a(3) = ( -0.5000  0.5000  0.0000 )  

     reciprocal axes: (cart. coord. in units 2 pi/alat)
               b(1) = ( -1.0000 -1.0000  1.0000 )  
               b(2) = (  1.0000  1.0000  1.0000 )  
               b(3) = ( -1.0000  1.0000 -1.0000 )  


     Atoms inside the unit cell: 

     Cartesian axes

     site n.  atom      mass           positions (alat units)
        1     Ga  69.7230   tau(    1) = (    0.00000    0.00000    0.00000  )
        2     As  74.9216   tau(    2) = (    0.25000    0.25000    0.25000  )

     Computing dynamical matrix for 
                    q = (   0.5000000   0.0000000   0.5000000 )

      2 Sym.Ops. (no q -> -q+G )


     G cutoff = 1912.4796  (   7302 G-vectors)     FFT grid: ( 64, 64, 64)
     G cutoff =  956.2398  (   2577 G-vectors)  smooth grid: ( 45, 45, 45)
     number of k points=  2176

     PseudoPot. # 1 for Ga read from file:
     /home/bonacc_m/Downloads/sg15_oncv_upf_2020-02-06/Ga_ONCV_PBE-1.2.upf
     MD5 check sum: 9961a622ff199abf6dfec9a0a10b8555
     Pseudo is Norm-conserving, Zval = 13.0
     Generated using ONCVPSP code by D. R. Hamann
     Using radial grid of  602 points,  6 beta functions with: 
                l(1) =   0
                l(2) =   0
                l(3) =   1
                l(4) =   1
                l(5) =   2
                l(6) =   2

     PseudoPot. # 2 for As read from file:
     /home/bonacc_m/Downloads/sg15_oncv_upf_2020-02-06/As_ONCV_PBE-1.2.upf
     MD5 check sum: a2ff92a4799c87c945fff9e6739df4dd
     Pseudo is Norm-conserving, Zval =  5.0
     Generated using ONCVPSP code by D. R. Hamann
     Using radial grid of  602 points,  6 beta functions with: 
                l(1) =   0
                l(2) =   0
                l(3) =   1
                l(4) =   1
                l(5) =   2
                l(6) =   2

     Mode symmetry, C_s (m)     point group:


     Atomic displacements:
     There are    6 irreducible representations

     Representation     1      1 modes -  To be done

     Representation     2      1 modes -  To be done

     Representation     3      1 modes -  To be done

     Representation     4      1 modes -  To be done

     Representation     5      1 modes -  To be done

     Representation     6      1 modes -  To be done



     Alpha used in Ewald sum =   2.8000
     PHONON       :      1h31m CPU      1h33m WALL



     Representation #   1 mode #   1

     Self-consistent Calculation

      iter #   1 total cpu time :  5654.8 secs   av.it.:  11.2
      thresh= 1.000E-02 alpha_mix =  0.700 |ddv_scf|^2 =  6.080E-05

      iter #   2 total cpu time :  5713.4 secs   av.it.:  16.0
      thresh= 7.798E-04 alpha_mix =  0.700 |ddv_scf|^2 =  2.676E-04

      iter #   3 total cpu time :  5761.7 secs   av.it.:  13.3
      thresh= 1.636E-03 alpha_mix =  0.700 |ddv_scf|^2 =  1.967E-06

      iter #   4 total cpu time :  5816.8 secs   av.it.:  15.2
      thresh= 1.403E-04 alpha_mix =  0.700 |ddv_scf|^2 =  2.250E-08

      iter #   5 total cpu time :  5872.3 secs   av.it.:  15.4
      thresh= 1.500E-05 alpha_mix =  0.700 |ddv_scf|^2 =  1.803E-09

      iter #   6 total cpu time :  5925.3 secs   av.it.:  14.8
      thresh= 4.246E-06 alpha_mix =  0.700 |ddv_scf|^2 =  1.466E-10

      iter #   7 total cpu time :  5979.9 secs   av.it.:  15.3
      thresh= 1.211E-06 alpha_mix =  0.700 |ddv_scf|^2 =  1.739E-11

      iter #   8 total cpu time :  6035.5 secs   av.it.:  15.4
      thresh= 4.170E-07 alpha_mix =  0.700 |ddv_scf|^2 =  6.244E-12

[...]
     sticks:   dense  smooth     PW     G-vecs:    dense   smooth      PW
     Min         215     107     36                 7301     2576     496
     Max         216     108     37                 7306     2581     499
     Sum        2587    1285    433                87651    30923    5961

     Using Slab Decomposition


     Title: 
     GaAs                                                                       


     bravais-lattice index     =            2
     lattice parameter (alat)  =      10.8615  a.u.
     unit-cell volume          =     320.3354 (a.u.)^3
     number of atoms/cell      =            2
     number of atomic types    =            2
     number of electrons       =        18.00
     number of Kohn-Sham states=            9
     kinetic-energy cutoff     =      80.0000  Ry
     charge density cutoff     =     640.0000  Ry
     Exchange-correlation= PBE
                           (   1   4   3   4   0   0   0)

     celldm(1)=  10.861462  celldm(2)=   0.000000  celldm(3)=   0.000000
     celldm(4)=   0.000000  celldm(5)=   0.000000  celldm(6)=   0.000000

     crystal axes: (cart. coord. in units of alat)
               a(1) = (  -0.500000   0.000000   0.500000 )  
               a(2) = (   0.000000   0.500000   0.500000 )  
               a(3) = (  -0.500000   0.500000   0.000000 )  

     reciprocal axes: (cart. coord. in units 2 pi/alat)
               b(1) = ( -1.000000 -1.000000  1.000000 )  
               b(2) = (  1.000000  1.000000  1.000000 )  
               b(3) = ( -1.000000  1.000000 -1.000000 )  


     PseudoPot. # 1 for Ga read from file:
     /home/bonacc_m/Downloads/sg15_oncv_upf_2020-02-06/Ga_ONCV_PBE-1.2.upf
     MD5 check sum: 9961a622ff199abf6dfec9a0a10b8555
     Pseudo is Norm-conserving, Zval = 13.0
     Generated using ONCVPSP code by D. R. Hamann
     Using radial grid of  602 points,  6 beta functions with: 
                l(1) =   0
                l(2) =   0
                l(3) =   1
                l(4) =   1
                l(5) =   2
                l(6) =   2

     PseudoPot. # 2 for As read from file:
     /home/bonacc_m/Downloads/sg15_oncv_upf_2020-02-06/As_ONCV_PBE-1.2.upf
     MD5 check sum: a2ff92a4799c87c945fff9e6739df4dd
     Pseudo is Norm-conserving, Zval =  5.0
     Generated using ONCVPSP code by D. R. Hamann
     Using radial grid of  602 points,  6 beta functions with: 
                l(1) =   0
                l(2) =   0
                l(3) =   1
                l(4) =   1
                l(5) =   2
                l(6) =   2

     atomic species   valence    mass     pseudopotential
        Ga            13.00    69.72300     Ga( 1.00)
        As             5.00    74.92159     As( 1.00)

     24 Sym. Ops. (no inversion) found



   Cartesian axes

     site n.     atom                  positions (alat units)
         1           Ga  tau(   1) = (   0.0000000   0.0000000   0.0000000  )
         2           As  tau(   2) = (   0.2500000   0.2500000   0.2500000  )

     number of k points=  1024

     Number of k-points >= 100: set verbosity='high' to print them.

     Dense  grid:    87651 G-vectors     FFT dimensions: (  64,  64,  64)

     Smooth grid:    30923 G-vectors     FFT dimensions: (  45,  45,  45)

     Estimated max dynamical RAM per process >       8.06 MB

     Estimated total dynamical RAM >      96.68 MB

     The potential is recalculated from file :
     /home/bonacc_m/Documents/phonons/GaAs_NAC/TMP_GaAs/_ph0/GaAs.save/charge-density

     Starting wfcs are    0 atomic +    9 random wfcs

     Band Structure Calculation
     Davidson diagonalization with overlap

     ethr =  5.56E-11,  avg # of iterations = 18.0

     total cpu time spent up to now is      511.3 secs

     End of band structure calculation

     Number of k-points >= 100: set verbosity='high' to print the bands.

     highest occupied level (ev):     6.5335

     Writing config to output data dir /home/bonacc_m/Documents/phonons/GaAs_NAC/TMP_GaAs/_ph0/GaAs.save/

     GaAs                                                                       

     bravais-lattice index     =            2
     lattice parameter (alat)  =      10.8615  a.u.
     unit-cell volume          =     320.3354 (a.u.)^3
     number of atoms/cell      =            2
     number of atomic types    =            2
     kinetic-energy cut-off    =      80.0000  Ry
     charge density cut-off    =     640.0000  Ry
     convergence threshold     =      1.0E-13
     beta                      =       0.7000
     number of iterations used =            4
     Exchange-correlation= PBE
                           (   1   4   3   4   0   0   0)


     celldm(1)=   10.86146  celldm(2)=    0.00000  celldm(3)=    0.00000
     celldm(4)=    0.00000  celldm(5)=    0.00000  celldm(6)=    0.00000

     crystal axes: (cart. coord. in units of alat)
               a(1) = ( -0.5000  0.0000  0.5000 )  
               a(2) = (  0.0000  0.5000  0.5000 )  
               a(3) = ( -0.5000  0.5000  0.0000 )  

     reciprocal axes: (cart. coord. in units 2 pi/alat)
               b(1) = ( -1.0000 -1.0000  1.0000 )  
               b(2) = (  1.0000  1.0000  1.0000 )  
               b(3) = ( -1.0000  1.0000 -1.0000 )  


     Atoms inside the unit cell: 

     Cartesian axes

     site n.  atom      mass           positions (alat units)
        1     Ga  69.7230   tau(    1) = (    0.00000    0.00000    0.00000  )
        2     As  74.9216   tau(    2) = (    0.25000    0.25000    0.25000  )

     Computing dynamical matrix for 
                    q = (  -0.5000000  -1.0000000   0.0000000 )

      4 Sym.Ops. (no q -> -q+G )


     G cutoff = 1912.4796  (   7302 G-vectors)     FFT grid: ( 64, 64, 64)
     G cutoff =  956.2398  (   2577 G-vectors)  smooth grid: ( 45, 45, 45)
     number of k points=  1024

     PseudoPot. # 1 for Ga read from file:
     /home/bonacc_m/Downloads/sg15_oncv_upf_2020-02-06/Ga_ONCV_PBE-1.2.upf
     MD5 check sum: 9961a622ff199abf6dfec9a0a10b8555
     Pseudo is Norm-conserving, Zval = 13.0
     Generated using ONCVPSP code by D. R. Hamann
     Using radial grid of  602 points,  6 beta functions with: 
                l(1) =   0
                l(2) =   0
                l(3) =   1
                l(4) =   1
                l(5) =   2
                l(6) =   2

     PseudoPot. # 2 for As read from file:
     /home/bonacc_m/Downloads/sg15_oncv_upf_2020-02-06/As_ONCV_PBE-1.2.upf
     MD5 check sum: a2ff92a4799c87c945fff9e6739df4dd
     Pseudo is Norm-conserving, Zval =  5.0
     Generated using ONCVPSP code by D. R. Hamann
     Using radial grid of  602 points,  6 beta functions with: 
                l(1) =   0
                l(2) =   0
                l(3) =   1
                l(4) =   1
                l(5) =   2
                l(6) =   2

     Mode symmetry, S_4 (-4)    point group:


     Atomic displacements:
     There are    6 irreducible representations

     Representation     1      1 modes -  To be done

     Representation     2      1 modes -  To be done

     Representation     3      1 modes -  To be done

     Representation     4      1 modes -  To be done

     Representation     5      1 modes -  To be done

     Representation     6      1 modes -  To be done



     Alpha used in Ewald sum =   2.8000
     PHONON       :      2h20m CPU      2h22m WALL



     Representation #   1 mode #   1

     Self-consistent Calculation

      iter #   1 total cpu time :  8575.7 secs   av.it.:   6.7
      thresh= 1.000E-02 alpha_mix =  0.700 |ddv_scf|^2 =  1.398E-06

      iter #   2 total cpu time :  8600.9 secs   av.it.:  14.4
      thresh= 1.183E-04 alpha_mix =  0.700 |ddv_scf|^2 =  1.650E-06

      iter #   3 total cpu time :  8624.3 secs   av.it.:  13.5
      thresh= 1.285E-04 alpha_mix =  0.700 |ddv_scf|^2 =  4.915E-10

      iter #   4 total cpu time :  8651.0 secs   av.it.:  15.5
      thresh= 2.217E-06 alpha_mix =  0.700 |ddv_scf|^2 =  6.192E-12

      iter #   5 total cpu time :  8676.7 secs   av.it.:  15.0
      thresh= 2.488E-07 alpha_mix =  0.700 |ddv_scf|^2 =  4.068E-13

      iter #   6 total cpu time :  8702.4 secs   av.it.:  14.8
      thresh= 6.378E-08 alpha_mix =  0.700 |ddv_scf|^2 =  2.196E-15

     End of self-consistent calculation

     Convergence has been achieved 


     Representation #   2 mode #   2

     Self-consistent Calculation

      iter #   1 total cpu time :  8718.2 secs   av.it.:   7.9
      thresh= 1.000E-02 alpha_mix =  0.700 |ddv_scf|^2 =  9.561E-07

      iter #   2 total cpu time :  8745.3 secs   av.it.:  15.8
      thresh= 9.778E-05 alpha_mix =  0.700 |ddv_scf|^2 =  6.083E-07

      iter #   3 total cpu time :  8771.0 secs   av.it.:  15.0
      thresh= 7.799E-05 alpha_mix =  0.700 |ddv_scf|^2 =  7.816E-10

      iter #   4 total cpu time :  8797.9 secs   av.it.:  15.8
      thresh= 2.796E-06 alpha_mix =  0.700 |ddv_scf|^2 =  9.722E-12

      iter #   5 total cpu time :  8822.3 secs   av.it.:  14.1
      thresh= 3.118E-07 alpha_mix =  0.700 |ddv_scf|^2 =  4.534E-13

      iter #   6 total cpu time :  8845.6 secs   av.it.:  13.4
      thresh= 6.734E-08 alpha_mix =  0.700 |ddv_scf|^2 =  4.253E-15

     End of self-consistent calculation

     Convergence has been achieved 


     Representation #   3 mode #   3

     Self-consistent Calculation

      iter #   1 total cpu time :  8866.7 secs   av.it.:  11.1
      thresh= 1.000E-02 alpha_mix =  0.700 |ddv_scf|^2 =  1.761E-05

      iter #   2 total cpu time :  8895.0 secs   av.it.:  16.8
      thresh= 4.197E-04 alpha_mix =  0.700 |ddv_scf|^2 =  1.611E-05

      iter #   3 total cpu time :  8921.1 secs   av.it.:  15.1
      thresh= 4.014E-04 alpha_mix =  0.700 |ddv_scf|^2 =  3.079E-08

      iter #   4 total cpu time :  8948.7 secs   av.it.:  16.2
      thresh= 1.755E-05 alpha_mix =  0.700 |ddv_scf|^2 =  4.093E-10

      iter #   5 total cpu time :  8974.4 secs   av.it.:  14.8
      thresh= 2.023E-06 alpha_mix =  0.700 |ddv_scf|^2 =  3.053E-12

      iter #   6 total cpu time :  8998.5 secs   av.it.:  14.0
      thresh= 1.747E-07 alpha_mix =  0.700 |ddv_scf|^2 =  1.581E-13

      iter #   7 total cpu time :  9024.1 secs   av.it.:  14.9
      thresh= 3.976E-08 alpha_mix =  0.700 |ddv_scf|^2 =  9.305E-16

     End of self-consistent calculation

     Convergence has been achieved 


     Representation #   4 mode #   4

     Self-consistent Calculation

      iter #   1 total cpu time :  9039.5 secs   av.it.:   7.6
      thresh= 1.000E-02 alpha_mix =  0.700 |ddv_scf|^2 =  5.858E-07

      iter #   2 total cpu time :  9066.9 secs   av.it.:  16.0
      thresh= 7.654E-05 alpha_mix =  0.700 |ddv_scf|^2 =  3.786E-07

      iter #   3 total cpu time :  9092.8 secs   av.it.:  15.3
      thresh= 6.153E-05 alpha_mix =  0.700 |ddv_scf|^2 =  5.944E-10

      iter #   4 total cpu time :  9119.8 secs   av.it.:  15.8
      thresh= 2.438E-06 alpha_mix =  0.700 |ddv_scf|^2 =  4.404E-12

      iter #   5 total cpu time :  9147.2 secs   av.it.:  15.8
      thresh= 2.098E-07 alpha_mix =  0.700 |ddv_scf|^2 =  7.712E-13

      iter #   6 total cpu time :  9173.2 secs   av.it.:  15.2
      thresh= 8.782E-08 alpha_mix =  0.700 |ddv_scf|^2 =  2.206E-15

     End of self-consistent calculation

     Convergence has been achieved 


     Representation #   5 mode #   5

     Self-consistent Calculation

      iter #   1 total cpu time :  9194.3 secs   av.it.:  11.2
      thresh= 1.000E-02 alpha_mix =  0.700 |ddv_scf|^2 =  2.407E-05

      iter #   2 total cpu time :  9223.0 secs   av.it.:  16.7
      thresh= 4.907E-04 alpha_mix =  0.700 |ddv_scf|^2 =  2.291E-05

      iter #   3 total cpu time :  9248.8 secs   av.it.:  15.2
      thresh= 4.787E-04 alpha_mix =  0.700 |ddv_scf|^2 =  3.950E-08

      iter #   4 total cpu time :  9275.9 secs   av.it.:  15.7
      thresh= 1.987E-05 alpha_mix =  0.700 |ddv_scf|^2 =  3.140E-10

      iter #   5 total cpu time :  9301.7 secs   av.it.:  15.1
      thresh= 1.772E-06 alpha_mix =  0.700 |ddv_scf|^2 =  3.450E-12

      iter #   6 total cpu time :  9327.2 secs   av.it.:  14.8
      thresh= 1.857E-07 alpha_mix =  0.700 |ddv_scf|^2 =  2.743E-13

      iter #   7 total cpu time :  9353.5 secs   av.it.:  15.3
      thresh= 5.238E-08 alpha_mix =  0.700 |ddv_scf|^2 =  3.053E-15

     End of self-consistent calculation

     Convergence has been achieved 


     Representation #   6 mode #   6

     Self-consistent Calculation

      iter #   1 total cpu time :  9374.4 secs   av.it.:  11.0
      thresh= 1.000E-02 alpha_mix =  0.700 |ddv_scf|^2 =  2.365E-05

      iter #   2 total cpu time :  9402.6 secs   av.it.:  16.5
      thresh= 4.864E-04 alpha_mix =  0.700 |ddv_scf|^2 =  3.045E-05

      iter #   3 total cpu time :  9427.8 secs   av.it.:  14.8
      thresh= 5.518E-04 alpha_mix =  0.700 |ddv_scf|^2 =  2.436E-07

      iter #   4 total cpu time :  9454.5 secs   av.it.:  15.6
      thresh= 4.936E-05 alpha_mix =  0.700 |ddv_scf|^2 =  8.742E-10

      iter #   5 total cpu time :  9478.1 secs   av.it.:  13.8
      thresh= 2.957E-06 alpha_mix =  0.700 |ddv_scf|^2 =  1.088E-11

      iter #   6 total cpu time :  9503.6 secs   av.it.:  14.8
      thresh= 3.299E-07 alpha_mix =  0.700 |ddv_scf|^2 =  2.631E-13

      iter #   7 total cpu time :  9527.8 secs   av.it.:  14.1
      thresh= 5.129E-08 alpha_mix =  0.700 |ddv_scf|^2 =  6.915E-15

     End of self-consistent calculation

     Convergence has been achieved 

     Number of q in the star =    6
     List of q in the star:
          1  -0.500000000  -1.000000000   0.000000000
          2   0.000000000   1.000000000  -0.500000000
          3   0.000000000   1.000000000   0.500000000
          4   0.500000000   1.000000000   0.000000000
          5   0.000000000  -0.500000000  -1.000000000
          6   0.000000000   0.500000000  -1.000000000

     Diagonalizing the dynamical matrix

     q = (   -0.500000000  -1.000000000   0.000000000 ) 

 **************************************************************************
     freq (    1) =       2.726916 [THz] =      90.960111 [cm-1]
     freq (    2) =       3.073001 [THz] =     102.504266 [cm-1]
     freq (    3) =       5.542760 [THz] =     184.886582 [cm-1]
     freq (    4) =       5.792262 [THz] =     193.209054 [cm-1]
     freq (    5) =       7.066818 [THz] =     235.723682 [cm-1]
     freq (    6) =       7.424153 [THz] =     247.643103 [cm-1]
 **************************************************************************

     Mode symmetry, S_4 (-4)    point group:

     freq (   1-   1) =         91.0  [cm-1]   --> B    W_3           
     freq (   2-   2) =        102.5  [cm-1]   --> E    W_4           
     freq (   3-   3) =        184.9  [cm-1]   --> A    W_1           
     freq (   4-   4) =        193.2  [cm-1]   --> E*   W_2           
     freq (   5-   5) =        235.7  [cm-1]   --> E    W_4           
     freq (   6-   6) =        247.6  [cm-1]   --> B    W_3           

     init_run     :      0.73s CPU      0.75s WALL (       7 calls)
     electrons    :    502.66s CPU    509.97s WALL (       7 calls)

     Called by init_run:
     wfcinit      :      0.00s CPU      0.00s WALL (       7 calls)
     potinit      :      0.09s CPU      0.10s WALL (       7 calls)
     hinit0       :      0.11s CPU      0.11s WALL (       7 calls)

     Called by electrons:
     c_bands      :    502.66s CPU    509.97s WALL (       7 calls)
     v_of_rho     :      0.08s CPU      0.09s WALL (       8 calls)

     Called by c_bands:
     init_us_2    :     23.15s CPU     23.77s WALL (  234528 calls)
     init_us_2:cp :     22.89s CPU     23.52s WALL (  234528 calls)
     cegterg      :    474.00s CPU    480.52s WALL (    8815 calls)

     Called by *egterg:
     cdiaghg      :     33.04s CPU     33.52s WALL (  153090 calls)
     h_psi        :   7197.84s CPU   7326.32s WALL ( 3223842 calls)
     g_psi        :      1.76s CPU      1.78s WALL (  145050 calls)

     Called by h_psi:
     h_psi:calbec :    596.21s CPU    606.44s WALL ( 3223842 calls)
     vloc_psi     :   6038.34s CPU   6147.00s WALL ( 3223842 calls)
     add_vuspsi   :    545.40s CPU    554.89s WALL ( 3223842 calls)

     General routines
     calbec       :   1187.15s CPU   1207.73s WALL ( 6424679 calls)
     fft          :      2.98s CPU      3.24s WALL (    4534 calls)
     ffts         :      6.74s CPU      7.08s WALL (   25761 calls)
     fftw         :   6356.77s CPU   6474.84s WALL (58070304 calls)
     interpolate  :      0.42s CPU      0.56s WALL (     693 calls)
     davcio       :     30.47s CPU     37.64s WALL (  965358 calls)

     Parallel routines

     PHONON       :      2h35m CPU      2h38m WALL

     INITIALIZATION: 
     phq_setup    :      0.22s CPU      0.24s WALL (       8 calls)
     phq_init     :     13.27s CPU     13.59s WALL (       8 calls)

     phq_init     :     13.27s CPU     13.59s WALL (       8 calls)
     init_vloc    :      0.04s CPU      0.04s WALL (       8 calls)
     init_us_1    :      0.08s CPU      0.08s WALL (       8 calls)
     init_us_2    :     23.15s CPU     23.77s WALL (  234528 calls)

     DYNAMICAL MATRIX:
     dynmat0      :      8.70s CPU      8.86s WALL (       8 calls)
     phqscf       :   8756.31s CPU   8924.78s WALL (       8 calls)
     dynmatrix    :      0.01s CPU      0.01s WALL (       8 calls)

     phqscf       :   8756.31s CPU   8924.78s WALL (       8 calls)
     solve_linter :   8731.58s CPU   8899.40s WALL (      38 calls)
     drhodv       :     24.68s CPU     25.30s WALL (      38 calls)

     dynmat0      :      8.70s CPU      8.86s WALL (       8 calls)
     dynmat_us    :      8.68s CPU      8.84s WALL (       8 calls)
     d2ionq       :      0.02s CPU      0.02s WALL (       8 calls)

     dynmat_us    :      8.68s CPU      8.84s WALL (       8 calls)

     phqscf       :   8756.31s CPU   8924.78s WALL (       8 calls)
     solve_linter :   8731.58s CPU   8899.40s WALL (      38 calls)

     solve_linter :   8731.58s CPU   8899.40s WALL (      38 calls)
     dvqpsi_us    :     70.65s CPU     73.25s WALL (   24840 calls)
     sth_kernel   :   8692.15s CPU   8856.79s WALL (     274 calls)
     apply_dpot_b :    301.12s CPU    309.95s WALL (  158088 calls)
     ortho        :     20.18s CPU     20.80s WALL (  182928 calls)
     cgsolve      :   7969.42s CPU   8111.14s WALL (  182928 calls)
     incdrhoscf   :    362.20s CPU    368.46s WALL (  182748 calls)
     dv_of_drho   :      3.76s CPU      3.99s WALL (     339 calls)
     mix_pot      :      0.58s CPU      1.03s WALL (     274 calls)
     psymdvscf    :     16.53s CPU     17.01s WALL (     268 calls)

     dvqpsi_us    :     70.65s CPU     73.25s WALL (   24840 calls)
     dvqpsi_us_on :     15.08s CPU     15.53s WALL (   24840 calls)

     cgsolve      :   7969.42s CPU   8111.14s WALL (  182928 calls)
     ch_psi       :   7777.59s CPU   7916.01s WALL ( 3061937 calls)

     ch_psi       :   7777.59s CPU   7916.01s WALL ( 3061937 calls)
     h_psi        :   7197.84s CPU   7326.32s WALL ( 3223842 calls)
     last         :    926.83s CPU    942.10s WALL ( 3061937 calls)

     h_psi        :   7197.84s CPU   7326.32s WALL ( 3223842 calls)
     add_vuspsi   :    545.40s CPU    554.89s WALL ( 3223842 calls)

     incdrhoscf   :    362.20s CPU    368.46s WALL (  182748 calls)


      General routines
     calbec       :   1187.15s CPU   1207.73s WALL ( 6424679 calls)
     fft          :      2.98s CPU      3.24s WALL (    4534 calls)
     ffts         :      6.74s CPU      7.08s WALL (   25761 calls)
     fftw         :   6356.77s CPU   6474.84s WALL (58070304 calls)
     davcio       :     30.47s CPU     37.64s WALL (  965358 calls)
     write_rec    :      0.15s CPU      0.31s WALL (     312 calls)


     PHONON       :      2h35m CPU      2h38m WALL


   This run was terminated on:  19:51:37   2May2024            

=------------------------------------------------------------------------------=
   JOB DONE.
=------------------------------------------------------------------------------=
