
     Program PHONON v.7.1 starts on  3Jun2024 at 16:21:19 

     This program is part of the open-source Quantum ESPRESSO suite
     for quantum simulation of materials; please cite
         "P. Giannozzi et al., J. Phys.:Condens. Matter 21 395502 (2009);
         "P. Giannozzi et al., J. Phys.:Condens. Matter 29 465901 (2017);
         "P. Giannozzi et al., J. Chem. Phys. 152 154105 (2020);
          URL http://www.quantum-espresso.org", 
     in publications or presentations arising from this work. More details at
     http://www.quantum-espresso.org/quote

     Parallel version (MPI & OpenMP), running on      12 processor cores
     Number of MPI processes:                12
     Threads/MPI process:                     1

     MPI processes distributed on     1 nodes
     R & G space division:  proc/nbgrp/npool/nimage =      12
     241104 MiB available memory on the printing compute node when the environment starts

     Reading input from GaAs.ph.in

     Reading xml data from directory:

     /home/bonacc_m/Documents/phonons/GaAs/TMP/GaAs.save/

     IMPORTANT: XC functional enforced from input :
     Exchange-correlation= PBE
                           (   1   4   3   4   0   0   0)
     Any further DFT definition will be discarded
     Please, verify this is what you really want


     Parallelization info
     --------------------
     sticks:   dense  smooth     PW     G-vecs:    dense   smooth      PW
     Min         215     107     32                 7301     2576     421
     Max         216     108     33                 7306     2581     424
     Sum        2587    1285    385                87651    30923    5065

     Using Slab Decomposition

     Reading collected, re-writing distributed wavefunctions


     Dynamical matrices for ( 4, 4, 4)  uniform grid of q-points
     (   8 q-points):
       N         xq(1)         xq(2)         xq(3) 
       1   0.000000000   0.000000000   0.000000000
       2  -0.250000000   0.250000000  -0.250000000
       3   0.500000000  -0.500000000   0.500000000
       4   0.000000000   0.500000000   0.000000000
       5   0.750000000  -0.250000000   0.750000000
       6   0.500000000   0.000000000   0.500000000
       7   0.000000000  -1.000000000   0.000000000
       8  -0.500000000  -1.000000000   0.000000000

     Calculation of q =    0.0000000   0.0000000   0.0000000

     GaAs                                                                       

     bravais-lattice index     =            2
     lattice parameter (alat)  =      10.8615  a.u.
     unit-cell volume          =     320.3354 (a.u.)^3
     number of atoms/cell      =            2
     number of atomic types    =            2
     kinetic-energy cut-off    =      80.0000  Ry
     charge density cut-off    =     640.0000  Ry
     convergence threshold     =      1.0E-13
     beta                      =       0.7000
     number of iterations used =            4
     Exchange-correlation= PBE
                           (   1   4   3   4   0   0   0)


     celldm(1)=   10.86146  celldm(2)=    0.00000  celldm(3)=    0.00000
     celldm(4)=    0.00000  celldm(5)=    0.00000  celldm(6)=    0.00000

     crystal axes: (cart. coord. in units of alat)
               a(1) = ( -0.5000  0.0000  0.5000 )  
               a(2) = (  0.0000  0.5000  0.5000 )  
               a(3) = ( -0.5000  0.5000  0.0000 )  

     reciprocal axes: (cart. coord. in units 2 pi/alat)
               b(1) = ( -1.0000 -1.0000  1.0000 )  
               b(2) = (  1.0000  1.0000  1.0000 )  
               b(3) = ( -1.0000  1.0000 -1.0000 )  


     Atoms inside the unit cell: 

     Cartesian axes

     site n.  atom      mass           positions (alat units)
        1     Ga  69.7230   tau(    1) = (    0.00000    0.00000    0.00000  )
        2     As  74.9216   tau(    2) = (    0.25000    0.25000    0.25000  )

     Computing dynamical matrix for 
                    q = (   0.0000000   0.0000000   0.0000000 )

     25 Sym.Ops. (with q -> -q+G )


     G cutoff = 1912.4796  (   7302 G-vectors)     FFT grid: ( 64, 64, 64)
     G cutoff =  956.2398  (   2577 G-vectors)  smooth grid: ( 45, 45, 45)
     number of k points=   182

     PseudoPot. # 1 for Ga read from file:
     /home/bonacc_m/Downloads/sg15_oncv_upf_2020-02-06/Ga_ONCV_PBE-1.2.upf
     MD5 check sum: 9961a622ff199abf6dfec9a0a10b8555
     Pseudo is Norm-conserving, Zval = 13.0
     Generated using ONCVPSP code by D. R. Hamann
     Using radial grid of  602 points,  6 beta functions with: 
                l(1) =   0
                l(2) =   0
                l(3) =   1
                l(4) =   1
                l(5) =   2
                l(6) =   2

     PseudoPot. # 2 for As read from file:
     /home/bonacc_m/Downloads/sg15_oncv_upf_2020-02-06/As_ONCV_PBE-1.2.upf
     MD5 check sum: a2ff92a4799c87c945fff9e6739df4dd
     Pseudo is Norm-conserving, Zval =  5.0
     Generated using ONCVPSP code by D. R. Hamann
     Using radial grid of  602 points,  6 beta functions with: 
                l(1) =   0
                l(2) =   0
                l(3) =   1
                l(4) =   1
                l(5) =   2
                l(6) =   2

     Mode symmetry, T_d (-43m)  point group:


     Electric field:
     Dielectric constant
     Born effective charges in two ways 


     Atomic displacements:
     There are    2 irreducible representations

     Representation     1      3 modes -  To be done

     Representation     2      3 modes -  To be done



     Alpha used in Ewald sum =   2.8000
     PHONON       :      1.07s CPU      1.14s WALL


     Electric Fields Calculation

      iter #   1 total cpu time :    75.8 secs   av.it.:   8.2
      thresh= 1.000E-02 alpha_mix =  0.700 |ddv_scf|^2 =  2.080E-08

      iter #   2 total cpu time :   109.1 secs   av.it.:  17.1
      thresh= 1.442E-05 alpha_mix =  0.700 |ddv_scf|^2 =  1.488E-09

      iter #   3 total cpu time :   140.6 secs   av.it.:  16.1
      thresh= 3.857E-06 alpha_mix =  0.700 |ddv_scf|^2 =  1.216E-10

      iter #   4 total cpu time :   172.4 secs   av.it.:  16.4
      thresh= 1.103E-06 alpha_mix =  0.700 |ddv_scf|^2 =  1.397E-12

      iter #   5 total cpu time :   207.7 secs   av.it.:  18.3
      thresh= 1.182E-07 alpha_mix =  0.700 |ddv_scf|^2 =  2.887E-13

      iter #   6 total cpu time :   242.3 secs   av.it.:  17.8
      thresh= 5.373E-08 alpha_mix =  0.700 |ddv_scf|^2 =  3.136E-15

     End of electric fields calculation

          Dielectric constant in cartesian axis 

          (      15.411686603       0.000000000       0.000000000 )
          (       0.000000000      15.411686603       0.000000000 )
          (       0.000000000      -0.000000000      15.411686603 )

          Effective charges (d Force / dE) in cartesian axis without acoustic sum rule applied (asr)

           atom      1   Ga Mean Z*:        2.20323
      Ex  (        2.20323       -0.00000       -0.00000 )
      Ey  (       -0.00000        2.20323       -0.00000 )
      Ez  (       -0.00000       -0.00000        2.20323 )
           atom      2   As Mean Z*:       -2.20888
      Ex  (       -2.20888       -0.00000        0.00000 )
      Ey  (        0.00000       -2.20888        0.00000 )
      Ez  (        0.00000        0.00000       -2.20888 )

          Effective charges Sum: Mean:       -0.00564
             -0.00564       -0.00000       -0.00000
             -0.00000       -0.00564       -0.00000
             -0.00000        0.00000       -0.00564

          Effective charges (d Force / dE) in cartesian axis with asr applied: 
           atom      1   Ga Mean Z*:        2.20605
      E*x (        2.20605        0.00000       -0.00000 )
      E*y (       -0.00000        2.20605       -0.00000 )
      E*z (       -0.00000       -0.00000        2.20605 )
           atom      2   As Mean Z*:       -2.20605
      E*x (       -2.20605        0.00000        0.00000 )
      E*y (        0.00000       -2.20605        0.00000 )
      E*z (        0.00000        0.00000       -2.20605 )


     Representation #   1 modes #   1   2   3

     Self-consistent Calculation

      iter #   1 total cpu time :   262.3 secs   av.it.:   6.9
      thresh= 1.000E-02 alpha_mix =  0.700 |ddv_scf|^2 =  9.550E-09

      iter #   2 total cpu time :   293.7 secs   av.it.:  17.4
      thresh= 9.772E-06 alpha_mix =  0.700 |ddv_scf|^2 =  4.786E-10

      iter #   3 total cpu time :   326.3 secs   av.it.:  17.8
      thresh= 2.188E-06 alpha_mix =  0.700 |ddv_scf|^2 =  7.556E-12

      iter #   4 total cpu time :   358.7 secs   av.it.:  18.1
      thresh= 2.749E-07 alpha_mix =  0.700 |ddv_scf|^2 =  2.839E-13

      iter #   5 total cpu time :   389.2 secs   av.it.:  17.0
      thresh= 5.328E-08 alpha_mix =  0.700 |ddv_scf|^2 =  2.631E-15

     End of self-consistent calculation

     Convergence has been achieved 


     Representation #   2 modes #   4   5   6

     Self-consistent Calculation

      iter #   1 total cpu time :   411.5 secs   av.it.:  11.1
      thresh= 1.000E-02 alpha_mix =  0.700 |ddv_scf|^2 =  8.822E-07

      iter #   2 total cpu time :   447.7 secs   av.it.:  18.8
      thresh= 9.393E-05 alpha_mix =  0.700 |ddv_scf|^2 =  2.507E-07

      iter #   3 total cpu time :   481.9 secs   av.it.:  18.1
      thresh= 5.007E-05 alpha_mix =  0.700 |ddv_scf|^2 =  1.319E-10

      iter #   4 total cpu time :   511.8 secs   av.it.:  15.6
      thresh= 1.149E-06 alpha_mix =  0.700 |ddv_scf|^2 =  1.227E-12

      iter #   5 total cpu time :   543.5 secs   av.it.:  17.4
      thresh= 1.108E-07 alpha_mix =  0.700 |ddv_scf|^2 =  4.873E-14

     End of self-consistent calculation

     Convergence has been achieved 

     Number of q in the star =    1
     List of q in the star:
          1   0.000000000   0.000000000   0.000000000

          Dielectric constant in cartesian axis 

          (      15.411686603       0.000000000       0.000000000 )
          (       0.000000000      15.411686603       0.000000000 )
          (       0.000000000      -0.000000000      15.411686603 )

          Effective charges (d Force / dE) in cartesian axis without acoustic sum rule applied (asr)

           atom      1   Ga Mean Z*:        2.20323
      Ex  (        2.20323       -0.00000       -0.00000 )
      Ey  (       -0.00000        2.20323       -0.00000 )
      Ez  (       -0.00000       -0.00000        2.20323 )
           atom      2   As Mean Z*:       -2.20888
      Ex  (       -2.20888       -0.00000        0.00000 )
      Ey  (        0.00000       -2.20888        0.00000 )
      Ez  (        0.00000        0.00000       -2.20888 )

          Effective charges Sum: Mean:       -0.00564
             -0.00564       -0.00000       -0.00000
             -0.00000       -0.00564       -0.00000
             -0.00000        0.00000       -0.00564

          Effective charges (d Force / dE) in cartesian axis with asr applied: 
           atom      1   Ga Mean Z*:        2.20605
      E*x (        2.20605        0.00000       -0.00000 )
      E*y (       -0.00000        2.20605       -0.00000 )
      E*z (       -0.00000       -0.00000        2.20605 )
           atom      2   As Mean Z*:       -2.20605
      E*x (       -2.20605        0.00000        0.00000 )
      E*y (        0.00000       -2.20605        0.00000 )
      E*z (        0.00000        0.00000       -2.20605 )

          Effective charges (d P / du) in cartesian axis 

           atom      1   Ga 
      Px  (        2.20796       -0.00000       -0.00000 )
      Py  (       -0.00000        2.20796       -0.00000 )
      Pz  (       -0.00000       -0.00000        2.20796 )
           atom      2   As 
      Px  (       -2.20898       -0.00000        0.00000 )
      Py  (       -0.00000       -2.20898        0.00000 )
      Pz  (        0.00000        0.00000       -2.20898 )

     Diagonalizing the dynamical matrix

     q = (    0.000000000   0.000000000   0.000000000 ) 

 **************************************************************************
     freq (    1) =       0.932185 [THz] =      31.094349 [cm-1]
     freq (    2) =       0.932185 [THz] =      31.094349 [cm-1]
     freq (    3) =       0.932185 [THz] =      31.094349 [cm-1]
     freq (    4) =       7.710740 [THz] =     257.202586 [cm-1]
     freq (    5) =       7.710740 [THz] =     257.202586 [cm-1]
     freq (    6) =       7.710740 [THz] =     257.202586 [cm-1]
 **************************************************************************

     Mode symmetry, T_d (-43m)  point group:

     freq (   1-   3) =         31.1  [cm-1]   --> T_2  G_15 P_4   I+R
     freq (   4-   6) =        257.2  [cm-1]   --> T_2  G_15 P_4   I+R

     Calculation of q =   -0.2500000   0.2500000  -0.2500000
     Subspace diagonalization in iterative solution of the eigenvalue problem:
     a serial algorithm will be used


     Parallelization info
     --------------------
     sticks:   dense  smooth     PW     G-vecs:    dense   smooth      PW
     Min         215     107     35                 7301     2576     464
     Max         216     108     36                 7306     2581     466
     Sum        2587    1285    421                87651    30923    5577

     Using Slab Decomposition


     Title: 
     GaAs                                                                       


     bravais-lattice index     =            2
     lattice parameter (alat)  =      10.8615  a.u.
     unit-cell volume          =     320.3354 (a.u.)^3
     number of atoms/cell      =            2
     number of atomic types    =            2
     number of electrons       =        18.00
     number of Kohn-Sham states=            9
     kinetic-energy cutoff     =      80.0000  Ry
     charge density cutoff     =     640.0000  Ry
     Exchange-correlation= PBE
                           (   1   4   3   4   0   0   0)

     celldm(1)=  10.861462  celldm(2)=   0.000000  celldm(3)=   0.000000
     celldm(4)=   0.000000  celldm(5)=   0.000000  celldm(6)=   0.000000

     crystal axes: (cart. coord. in units of alat)
               a(1) = (  -0.500000   0.000000   0.500000 )  
               a(2) = (   0.000000   0.500000   0.500000 )  
               a(3) = (  -0.500000   0.500000   0.000000 )  

     reciprocal axes: (cart. coord. in units 2 pi/alat)
               b(1) = ( -1.000000 -1.000000  1.000000 )  
               b(2) = (  1.000000  1.000000  1.000000 )  
               b(3) = ( -1.000000  1.000000 -1.000000 )  


     PseudoPot. # 1 for Ga read from file:
     /home/bonacc_m/Downloads/sg15_oncv_upf_2020-02-06/Ga_ONCV_PBE-1.2.upf
     MD5 check sum: 9961a622ff199abf6dfec9a0a10b8555
     Pseudo is Norm-conserving, Zval = 13.0
     Generated using ONCVPSP code by D. R. Hamann
     Using radial grid of  602 points,  6 beta functions with: 
                l(1) =   0
                l(2) =   0
                l(3) =   1
                l(4) =   1
                l(5) =   2
                l(6) =   2

     PseudoPot. # 2 for As read from file:
     /home/bonacc_m/Downloads/sg15_oncv_upf_2020-02-06/As_ONCV_PBE-1.2.upf
     MD5 check sum: a2ff92a4799c87c945fff9e6739df4dd
     Pseudo is Norm-conserving, Zval =  5.0
     Generated using ONCVPSP code by D. R. Hamann
     Using radial grid of  602 points,  6 beta functions with: 
                l(1) =   0
                l(2) =   0
                l(3) =   1
                l(4) =   1
                l(5) =   2
                l(6) =   2

     atomic species   valence    mass     pseudopotential
        Ga            13.00    69.72300     Ga( 1.00)
        As             5.00    74.92159     As( 1.00)

     24 Sym. Ops. (no inversion) found



   Cartesian axes

     site n.     atom                  positions (alat units)
         1           Ga  tau(   1) = (   0.0000000   0.0000000   0.0000000  )
         2           As  tau(   2) = (   0.2500000   0.2500000   0.2500000  )

     number of k points=  2600

     Number of k-points >= 100: set verbosity='high' to print them.

     Dense  grid:    87651 G-vectors     FFT dimensions: (  64,  64,  64)

     Smooth grid:    30923 G-vectors     FFT dimensions: (  45,  45,  45)

     Estimated max dynamical RAM per process >       7.99 MB

     Estimated total dynamical RAM >      95.83 MB

     The potential is recalculated from file :
     /home/bonacc_m/Documents/phonons/GaAs/TMP/_ph0/GaAs.save/charge-density

     Starting wfcs are    0 atomic +    9 random wfcs

     Band Structure Calculation
     Davidson diagonalization with overlap

     ethr =  5.56E-11,  avg # of iterations = 18.1

     total cpu time spent up to now is      164.1 secs

     End of band structure calculation

     Number of k-points >= 100: set verbosity='high' to print the bands.

     highest occupied level (ev):     6.5664

     Writing config to output data dir /home/bonacc_m/Documents/phonons/GaAs/TMP/_ph0/GaAs.save/

     GaAs                                                                       

     bravais-lattice index     =            2
     lattice parameter (alat)  =      10.8615  a.u.
     unit-cell volume          =     320.3354 (a.u.)^3
     number of atoms/cell      =            2
     number of atomic types    =            2
     kinetic-energy cut-off    =      80.0000  Ry
     charge density cut-off    =     640.0000  Ry
     convergence threshold     =      1.0E-13
     beta                      =       0.7000
     number of iterations used =            4
     Exchange-correlation= PBE
                           (   1   4   3   4   0   0   0)


     celldm(1)=   10.86146  celldm(2)=    0.00000  celldm(3)=    0.00000
     celldm(4)=    0.00000  celldm(5)=    0.00000  celldm(6)=    0.00000

     crystal axes: (cart. coord. in units of alat)
               a(1) = ( -0.5000  0.0000  0.5000 )  
               a(2) = (  0.0000  0.5000  0.5000 )  
               a(3) = ( -0.5000  0.5000  0.0000 )  

     reciprocal axes: (cart. coord. in units 2 pi/alat)
               b(1) = ( -1.0000 -1.0000  1.0000 )  
               b(2) = (  1.0000  1.0000  1.0000 )  
               b(3) = ( -1.0000  1.0000 -1.0000 )  


     Atoms inside the unit cell: 

     Cartesian axes

     site n.  atom      mass           positions (alat units)
        1     Ga  69.7230   tau(    1) = (    0.00000    0.00000    0.00000  )
        2     As  74.9216   tau(    2) = (    0.25000    0.25000    0.25000  )

     Computing dynamical matrix for 
                    q = (  -0.2500000   0.2500000  -0.2500000 )

      6 Sym.Ops. (no q -> -q+G )


     G cutoff = 1912.4796  (   7302 G-vectors)     FFT grid: ( 64, 64, 64)
     G cutoff =  956.2398  (   2577 G-vectors)  smooth grid: ( 45, 45, 45)
     number of k points=  2600

     PseudoPot. # 1 for Ga read from file:
     /home/bonacc_m/Downloads/sg15_oncv_upf_2020-02-06/Ga_ONCV_PBE-1.2.upf
     MD5 check sum: 9961a622ff199abf6dfec9a0a10b8555
     Pseudo is Norm-conserving, Zval = 13.0
     Generated using ONCVPSP code by D. R. Hamann
     Using radial grid of  602 points,  6 beta functions with: 
                l(1) =   0
                l(2) =   0
                l(3) =   1
                l(4) =   1
                l(5) =   2
                l(6) =   2

     PseudoPot. # 2 for As read from file:
     /home/bonacc_m/Downloads/sg15_oncv_upf_2020-02-06/As_ONCV_PBE-1.2.upf
     MD5 check sum: a2ff92a4799c87c945fff9e6739df4dd
     Pseudo is Norm-conserving, Zval =  5.0
     Generated using ONCVPSP code by D. R. Hamann
     Using radial grid of  602 points,  6 beta functions with: 
                l(1) =   0
                l(2) =   0
                l(3) =   1
                l(4) =   1
                l(5) =   2
                l(6) =   2

     Mode symmetry, C_3v (3m)   point group:


     Atomic displacements:
     There are    4 irreducible representations

     Representation     1      1 modes -  To be done

     Representation     2      1 modes -  To be done

     Representation     3      2 modes -  To be done

     Representation     4      2 modes -  To be done



     Alpha used in Ewald sum =   2.8000
     PHONON       :  11m39.72s CPU  11m52.52s WALL



     Representation #   1 mode #   1

     Self-consistent Calculation

      iter #   1 total cpu time :   766.1 secs   av.it.:  11.4
      thresh= 1.000E-02 alpha_mix =  0.700 |ddv_scf|^2 =  5.814E-04

      iter #   2 total cpu time :   834.1 secs   av.it.:  14.7
      thresh= 2.411E-03 alpha_mix =  0.700 |ddv_scf|^2 =  8.456E-03

      iter #   3 total cpu time :   887.5 secs   av.it.:  11.4
      thresh= 9.196E-03 alpha_mix =  0.700 |ddv_scf|^2 =  3.166E-06

      iter #   4 total cpu time :   956.4 secs   av.it.:  15.3
      thresh= 1.779E-04 alpha_mix =  0.700 |ddv_scf|^2 =  4.131E-08

      iter #   5 total cpu time :  1021.7 secs   av.it.:  14.0
      thresh= 2.033E-05 alpha_mix =  0.700 |ddv_scf|^2 =  1.974E-09

      iter #   6 total cpu time :  1090.1 secs   av.it.:  15.0
      thresh= 4.442E-06 alpha_mix =  0.700 |ddv_scf|^2 =  5.627E-11

      iter #   7 total cpu time :  1158.3 secs   av.it.:  15.2
      thresh= 7.501E-07 alpha_mix =  0.700 |ddv_scf|^2 =  2.035E-10

      iter #   8 total cpu time :  1216.1 secs   av.it.:  12.5
      thresh= 1.426E-06 alpha_mix =  0.700 |ddv_scf|^2 =  1.386E-11

      iter #   9 total cpu time :  1282.1 secs   av.it.:  14.7
      thresh= 3.723E-07 alpha_mix =  0.700 |ddv_scf|^2 =  7.748E-12

      iter #  10 total cpu time :  1342.3 secs   av.it.:  13.6
      thresh= 2.784E-07 alpha_mix =  0.700 |ddv_scf|^2 =  2.948E-13

      iter #  11 total cpu time :  1410.1 secs   av.it.:  14.7
      thresh= 5.430E-08 alpha_mix =  0.700 |ddv_scf|^2 =  7.011E-14

     End of self-consistent calculation

     Convergence has been achieved 


     Representation #   2 mode #   2

     Self-consistent Calculation

      iter #   1 total cpu time :  1451.7 secs   av.it.:   7.9
      thresh= 1.000E-02 alpha_mix =  0.700 |ddv_scf|^2 =  8.100E-05

      iter #   2 total cpu time :  1515.2 secs   av.it.:  13.8
      thresh= 9.000E-04 alpha_mix =  0.700 |ddv_scf|^2 =  1.164E-03

      iter #   3 total cpu time :  1569.7 secs   av.it.:  11.2
      thresh= 3.412E-03 alpha_mix =  0.700 |ddv_scf|^2 =  8.048E-08

      iter #   4 total cpu time :  1637.0 secs   av.it.:  14.4
      thresh= 2.837E-05 alpha_mix =  0.700 |ddv_scf|^2 =  5.867E-09

      iter #   5 total cpu time :  1702.0 secs   av.it.:  14.7
      thresh= 7.660E-06 alpha_mix =  0.700 |ddv_scf|^2 =  1.399E-11

      iter #   6 total cpu time :  1768.3 secs   av.it.:  15.0
      thresh= 3.741E-07 alpha_mix =  0.700 |ddv_scf|^2 =  8.137E-13

      iter #   7 total cpu time :  1836.1 secs   av.it.:  14.7
      thresh= 9.020E-08 alpha_mix =  0.700 |ddv_scf|^2 =  1.934E-13

      iter #   8 total cpu time :  1903.8 secs   av.it.:  14.9
      thresh= 4.398E-08 alpha_mix =  0.700 |ddv_scf|^2 =  1.675E-13

      iter #   9 total cpu time :  1958.8 secs   av.it.:  12.2
      thresh= 4.093E-08 alpha_mix =  0.700 |ddv_scf|^2 =  1.131E-13

      iter #  10 total cpu time :  2015.6 secs   av.it.:  12.6
      thresh= 3.364E-08 alpha_mix =  0.700 |ddv_scf|^2 =  1.280E-15

     End of self-consistent calculation

     Convergence has been achieved 


     Representation #   3 modes #   3   4

     Self-consistent Calculation

      iter #   1 total cpu time :  2090.9 secs   av.it.:   7.0
      thresh= 1.000E-02 alpha_mix =  0.700 |ddv_scf|^2 =  2.737E-08

      iter #   2 total cpu time :  2238.9 secs   av.it.:  17.1
      thresh= 1.655E-05 alpha_mix =  0.700 |ddv_scf|^2 =  2.772E-09

      iter #   3 total cpu time :  2388.0 secs   av.it.:  17.3
      thresh= 5.265E-06 alpha_mix =  0.700 |ddv_scf|^2 =  6.017E-11

      iter #   4 total cpu time :  2539.8 secs   av.it.:  17.4
      thresh= 7.757E-07 alpha_mix =  0.700 |ddv_scf|^2 =  6.996E-13

      iter #   5 total cpu time :  2678.2 secs   av.it.:  16.1
      thresh= 8.364E-08 alpha_mix =  0.700 |ddv_scf|^2 =  4.403E-15

     End of self-consistent calculation

     Convergence has been achieved 


     Representation #   4 modes #   5   6

     Self-consistent Calculation

      iter #   1 total cpu time :  2784.1 secs   av.it.:  11.0
      thresh= 1.000E-02 alpha_mix =  0.700 |ddv_scf|^2 =  2.148E-06

      iter #   2 total cpu time :  2939.1 secs   av.it.:  18.1
      thresh= 1.466E-04 alpha_mix =  0.700 |ddv_scf|^2 =  6.983E-07

      iter #   3 total cpu time :  3088.5 secs   av.it.:  17.3
      thresh= 8.356E-05 alpha_mix =  0.700 |ddv_scf|^2 =  4.189E-10

      iter #   4 total cpu time :  3233.2 secs   av.it.:  16.6
      thresh= 2.047E-06 alpha_mix =  0.700 |ddv_scf|^2 =  3.293E-11

      iter #   5 total cpu time :  3376.9 secs   av.it.:  16.2
      thresh= 5.738E-07 alpha_mix =  0.700 |ddv_scf|^2 =  3.098E-13

      iter #   6 total cpu time :  3518.8 secs   av.it.:  16.2
      thresh= 5.566E-08 alpha_mix =  0.700 |ddv_scf|^2 =  1.798E-14

     End of self-consistent calculation

     Convergence has been achieved 

     Number of q in the star =    4
     List of q in the star:
          1  -0.250000000   0.250000000  -0.250000000
          2   0.250000000  -0.250000000  -0.250000000
          3  -0.250000000  -0.250000000   0.250000000
          4   0.250000000   0.250000000   0.250000000
     In addition there is the -q list: 
          1   0.250000000  -0.250000000   0.250000000
          2  -0.250000000   0.250000000   0.250000000
          3   0.250000000   0.250000000  -0.250000000
          4  -0.250000000  -0.250000000  -0.250000000

     Diagonalizing the dynamical matrix

     q = (   -0.250000000   0.250000000  -0.250000000 ) 

 **************************************************************************
     freq (    1) =       1.561499 [THz] =      52.085999 [cm-1]
     freq (    2) =       1.561499 [THz] =      52.085999 [cm-1]
     freq (    3) =       3.675031 [THz] =     122.585851 [cm-1]
     freq (    4) =       7.439540 [THz] =     248.156352 [cm-1]
     freq (    5) =       7.439540 [THz] =     248.156352 [cm-1]
     freq (    6) =       7.749710 [THz] =     258.502485 [cm-1]
 **************************************************************************

     Mode symmetry, C_3v (3m)   point group:

     freq (   1-   2) =         52.1  [cm-1]   --> E    L_3           
     freq (   3-   3) =        122.6  [cm-1]   --> A_1  L_1           
     freq (   4-   5) =        248.2  [cm-1]   --> E    L_3           
     freq (   6-   6) =        258.5  [cm-1]   --> A_1  L_1           

     Calculation of q =    0.5000000  -0.5000000   0.5000000

     Parallelization info
     --------------------
     sticks:   dense  smooth     PW     G-vecs:    dense   smooth      PW
     Min         215     107     36                 7301     2576     496
     Max         216     108     37                 7306     2581     499
     Sum        2587    1285    433                87651    30923    5961

     Using Slab Decomposition


     Title: 
     GaAs                                                                       


     bravais-lattice index     =            2
     lattice parameter (alat)  =      10.8615  a.u.
     unit-cell volume          =     320.3354 (a.u.)^3
     number of atoms/cell      =            2
     number of atomic types    =            2
     number of electrons       =        18.00
     number of Kohn-Sham states=            9
     kinetic-energy cutoff     =      80.0000  Ry
     charge density cutoff     =     640.0000  Ry
     Exchange-correlation= PBE
                           (   1   4   3   4   0   0   0)

     celldm(1)=  10.861462  celldm(2)=   0.000000  celldm(3)=   0.000000
     celldm(4)=   0.000000  celldm(5)=   0.000000  celldm(6)=   0.000000

     crystal axes: (cart. coord. in units of alat)
               a(1) = (  -0.500000   0.000000   0.500000 )  
               a(2) = (   0.000000   0.500000   0.500000 )  
               a(3) = (  -0.500000   0.500000   0.000000 )  

     reciprocal axes: (cart. coord. in units 2 pi/alat)
               b(1) = ( -1.000000 -1.000000  1.000000 )  
               b(2) = (  1.000000  1.000000  1.000000 )  
               b(3) = ( -1.000000  1.000000 -1.000000 )  


     PseudoPot. # 1 for Ga read from file:
     /home/bonacc_m/Downloads/sg15_oncv_upf_2020-02-06/Ga_ONCV_PBE-1.2.upf
     MD5 check sum: 9961a622ff199abf6dfec9a0a10b8555
     Pseudo is Norm-conserving, Zval = 13.0
     Generated using ONCVPSP code by D. R. Hamann
     Using radial grid of  602 points,  6 beta functions with: 
                l(1) =   0
                l(2) =   0
                l(3) =   1
                l(4) =   1
                l(5) =   2
                l(6) =   2

     PseudoPot. # 2 for As read from file:
     /home/bonacc_m/Downloads/sg15_oncv_upf_2020-02-06/As_ONCV_PBE-1.2.upf
     MD5 check sum: a2ff92a4799c87c945fff9e6739df4dd
     Pseudo is Norm-conserving, Zval =  5.0
     Generated using ONCVPSP code by D. R. Hamann
     Using radial grid of  602 points,  6 beta functions with: 
                l(1) =   0
                l(2) =   0
                l(3) =   1
                l(4) =   1
                l(5) =   2
                l(6) =   2

     atomic species   valence    mass     pseudopotential
        Ga            13.00    69.72300     Ga( 1.00)
        As             5.00    74.92159     As( 1.00)

     24 Sym. Ops. (no inversion) found



   Cartesian axes

     site n.     atom                  positions (alat units)
         1           Ga  tau(   1) = (   0.0000000   0.0000000   0.0000000  )
         2           As  tau(   2) = (   0.2500000   0.2500000   0.2500000  )

     number of k points=  1300

     Number of k-points >= 100: set verbosity='high' to print them.

     Dense  grid:    87651 G-vectors     FFT dimensions: (  64,  64,  64)

     Smooth grid:    30923 G-vectors     FFT dimensions: (  45,  45,  45)

     Estimated max dynamical RAM per process >       8.03 MB

     Estimated total dynamical RAM >      96.37 MB

     The potential is recalculated from file :
     /home/bonacc_m/Documents/phonons/GaAs/TMP/_ph0/GaAs.save/charge-density

     Starting wfcs are    0 atomic +    9 random wfcs

     Band Structure Calculation
     Davidson diagonalization with overlap

     ethr =  5.56E-11,  avg # of iterations = 18.1

     total cpu time spent up to now is      247.4 secs

     End of band structure calculation

     Number of k-points >= 100: set verbosity='high' to print the bands.

     highest occupied level (ev):     6.5664

     Writing config to output data dir /home/bonacc_m/Documents/phonons/GaAs/TMP/_ph0/GaAs.save/

     GaAs                                                                       

     bravais-lattice index     =            2
     lattice parameter (alat)  =      10.8615  a.u.
     unit-cell volume          =     320.3354 (a.u.)^3
     number of atoms/cell      =            2
     number of atomic types    =            2
     kinetic-energy cut-off    =      80.0000  Ry
     charge density cut-off    =     640.0000  Ry
     convergence threshold     =      1.0E-13
     beta                      =       0.7000
     number of iterations used =            4
     Exchange-correlation= PBE
                           (   1   4   3   4   0   0   0)


     celldm(1)=   10.86146  celldm(2)=    0.00000  celldm(3)=    0.00000
     celldm(4)=    0.00000  celldm(5)=    0.00000  celldm(6)=    0.00000

     crystal axes: (cart. coord. in units of alat)
               a(1) = ( -0.5000  0.0000  0.5000 )  
               a(2) = (  0.0000  0.5000  0.5000 )  
               a(3) = ( -0.5000  0.5000  0.0000 )  

     reciprocal axes: (cart. coord. in units 2 pi/alat)
               b(1) = ( -1.0000 -1.0000  1.0000 )  
               b(2) = (  1.0000  1.0000  1.0000 )  
               b(3) = ( -1.0000  1.0000 -1.0000 )  


     Atoms inside the unit cell: 

     Cartesian axes

     site n.  atom      mass           positions (alat units)
        1     Ga  69.7230   tau(    1) = (    0.00000    0.00000    0.00000  )
        2     As  74.9216   tau(    2) = (    0.25000    0.25000    0.25000  )

     Computing dynamical matrix for 
                    q = (   0.5000000  -0.5000000   0.5000000 )

      7 Sym.Ops. (with q -> -q+G )


     G cutoff = 1912.4796  (   7302 G-vectors)     FFT grid: ( 64, 64, 64)
     G cutoff =  956.2398  (   2577 G-vectors)  smooth grid: ( 45, 45, 45)
     number of k points=  1300

     PseudoPot. # 1 for Ga read from file:
     /home/bonacc_m/Downloads/sg15_oncv_upf_2020-02-06/Ga_ONCV_PBE-1.2.upf
     MD5 check sum: 9961a622ff199abf6dfec9a0a10b8555
     Pseudo is Norm-conserving, Zval = 13.0
     Generated using ONCVPSP code by D. R. Hamann
     Using radial grid of  602 points,  6 beta functions with: 
                l(1) =   0
                l(2) =   0
                l(3) =   1
                l(4) =   1
                l(5) =   2
                l(6) =   2

     PseudoPot. # 2 for As read from file:
     /home/bonacc_m/Downloads/sg15_oncv_upf_2020-02-06/As_ONCV_PBE-1.2.upf
     MD5 check sum: a2ff92a4799c87c945fff9e6739df4dd
     Pseudo is Norm-conserving, Zval =  5.0
     Generated using ONCVPSP code by D. R. Hamann
     Using radial grid of  602 points,  6 beta functions with: 
                l(1) =   0
                l(2) =   0
                l(3) =   1
                l(4) =   1
                l(5) =   2
                l(6) =   2

     Mode symmetry, C_3v (3m)   point group:


     Atomic displacements:
     There are    4 irreducible representations

     Representation     1      1 modes -  To be done

     Representation     2      1 modes -  To be done

     Representation     3      2 modes -  To be done

     Representation     4      2 modes -  To be done



     Alpha used in Ewald sum =   2.8000
     PHONON       :  58m59.61s CPU      1h 0m WALL



     Representation #   1 mode #   1

     Self-consistent Calculation

      iter #   1 total cpu time :  3633.9 secs   av.it.:  11.3
      thresh= 1.000E-02 alpha_mix =  0.700 |ddv_scf|^2 =  7.754E-05

      iter #   2 total cpu time :  3669.6 secs   av.it.:  15.9
      thresh= 8.805E-04 alpha_mix =  0.700 |ddv_scf|^2 =  2.269E-04

      iter #   3 total cpu time :  3702.2 secs   av.it.:  13.9
      thresh= 1.506E-03 alpha_mix =  0.700 |ddv_scf|^2 =  7.711E-07

      iter #   4 total cpu time :  3736.3 secs   av.it.:  14.9
      thresh= 8.781E-05 alpha_mix =  0.700 |ddv_scf|^2 =  3.324E-08

      iter #   5 total cpu time :  3770.1 secs   av.it.:  14.8
      thresh= 1.823E-05 alpha_mix =  0.700 |ddv_scf|^2 =  1.725E-09

      iter #   6 total cpu time :  3802.3 secs   av.it.:  14.4
      thresh= 4.153E-06 alpha_mix =  0.700 |ddv_scf|^2 =  5.470E-11

      iter #   7 total cpu time :  3837.9 secs   av.it.:  15.6
      thresh= 7.396E-07 alpha_mix =  0.700 |ddv_scf|^2 =  2.299E-11

      iter #   8 total cpu time :  3871.1 secs   av.it.:  14.7
      thresh= 4.795E-07 alpha_mix =  0.700 |ddv_scf|^2 =  7.151E-14

     End of self-consistent calculation

     Convergence has been achieved 


     Representation #   2 mode #   2

     Self-consistent Calculation

      iter #   1 total cpu time :  3892.6 secs   av.it.:   8.0
      thresh= 1.000E-02 alpha_mix =  0.700 |ddv_scf|^2 =  6.708E-06

      iter #   2 total cpu time :  3926.8 secs   av.it.:  15.2
      thresh= 2.590E-04 alpha_mix =  0.700 |ddv_scf|^2 =  1.879E-05

      iter #   3 total cpu time :  3958.9 secs   av.it.:  13.7
      thresh= 4.335E-04 alpha_mix =  0.700 |ddv_scf|^2 =  2.067E-08

      iter #   4 total cpu time :  3990.9 secs   av.it.:  13.9
      thresh= 1.438E-05 alpha_mix =  0.700 |ddv_scf|^2 =  4.490E-10

      iter #   5 total cpu time :  4024.2 secs   av.it.:  14.8
      thresh= 2.119E-06 alpha_mix =  0.700 |ddv_scf|^2 =  5.646E-12

      iter #   6 total cpu time :  4058.1 secs   av.it.:  15.2
      thresh= 2.376E-07 alpha_mix =  0.700 |ddv_scf|^2 =  1.318E-12

      iter #   7 total cpu time :  4089.4 secs   av.it.:  14.1
      thresh= 1.148E-07 alpha_mix =  0.700 |ddv_scf|^2 =  5.750E-14

     End of self-consistent calculation

     Convergence has been achieved 


     Representation #   3 modes #   3   4

     Self-consistent Calculation

      iter #   1 total cpu time :  4127.3 secs   av.it.:   7.0
      thresh= 1.000E-02 alpha_mix =  0.700 |ddv_scf|^2 =  3.282E-08

      iter #   2 total cpu time :  4204.1 secs   av.it.:  17.1
      thresh= 1.812E-05 alpha_mix =  0.700 |ddv_scf|^2 =  4.580E-09

      iter #   3 total cpu time :  4280.2 secs   av.it.:  17.2
      thresh= 6.768E-06 alpha_mix =  0.700 |ddv_scf|^2 =  7.960E-11

      iter #   4 total cpu time :  4354.7 secs   av.it.:  17.3
      thresh= 8.922E-07 alpha_mix =  0.700 |ddv_scf|^2 =  7.751E-13

      iter #   5 total cpu time :  4426.1 secs   av.it.:  16.1
      thresh= 8.804E-08 alpha_mix =  0.700 |ddv_scf|^2 =  7.651E-15

     End of self-consistent calculation

     Convergence has been achieved 


     Representation #   4 modes #   5   6

     Self-consistent Calculation

      iter #   1 total cpu time :  4480.1 secs   av.it.:  11.0
      thresh= 1.000E-02 alpha_mix =  0.700 |ddv_scf|^2 =  2.287E-06

      iter #   2 total cpu time :  4558.8 secs   av.it.:  18.0
      thresh= 1.512E-04 alpha_mix =  0.700 |ddv_scf|^2 =  8.156E-07

      iter #   3 total cpu time :  4635.4 secs   av.it.:  17.2
      thresh= 9.031E-05 alpha_mix =  0.700 |ddv_scf|^2 =  5.302E-10

      iter #   4 total cpu time :  4710.2 secs   av.it.:  16.8
      thresh= 2.303E-06 alpha_mix =  0.700 |ddv_scf|^2 =  4.118E-11

      iter #   5 total cpu time :  4779.6 secs   av.it.:  16.0
      thresh= 6.417E-07 alpha_mix =  0.700 |ddv_scf|^2 =  4.023E-13

      iter #   6 total cpu time :  4850.1 secs   av.it.:  16.3
      thresh= 6.343E-08 alpha_mix =  0.700 |ddv_scf|^2 =  2.445E-14

     End of self-consistent calculation

     Convergence has been achieved 

     Number of q in the star =    4
     List of q in the star:
          1   0.500000000  -0.500000000   0.500000000
          2  -0.500000000   0.500000000   0.500000000
          3   0.500000000   0.500000000  -0.500000000
          4  -0.500000000  -0.500000000  -0.500000000

     Diagonalizing the dynamical matrix

     q = (    0.500000000  -0.500000000   0.500000000 ) 

 **************************************************************************
     freq (    1) =       1.824642 [THz] =      60.863516 [cm-1]
     freq (    2) =       1.824642 [THz] =      60.863516 [cm-1]
     freq (    3) =       5.974492 [THz] =     199.287594 [cm-1]
     freq (    4) =       6.582519 [THz] =     219.569196 [cm-1]
     freq (    5) =       7.402682 [THz] =     246.926884 [cm-1]
     freq (    6) =       7.402682 [THz] =     246.926884 [cm-1]
 **************************************************************************

     Mode symmetry, C_3v (3m)   point group:

     freq (   1-   2) =         60.9  [cm-1]   --> E    L_3           
     freq (   3-   3) =        199.3  [cm-1]   --> A_1  L_1           
     freq (   4-   4) =        219.6  [cm-1]   --> A_1  L_1           
     freq (   5-   6) =        246.9  [cm-1]   --> E    L_3           

     Calculation of q =    0.0000000   0.5000000   0.0000000

     Parallelization info
     --------------------
     sticks:   dense  smooth     PW     G-vecs:    dense   smooth      PW
     Min         215     107     35                 7301     2576     466
     Max         216     108     36                 7306     2581     469
     Sum        2587    1285    421                87651    30923    5601

     Using Slab Decomposition


     Title: 
     GaAs                                                                       


     bravais-lattice index     =            2
     lattice parameter (alat)  =      10.8615  a.u.
     unit-cell volume          =     320.3354 (a.u.)^3
     number of atoms/cell      =            2
     number of atomic types    =            2
     number of electrons       =        18.00
     number of Kohn-Sham states=            9
     kinetic-energy cutoff     =      80.0000  Ry
     charge density cutoff     =     640.0000  Ry
     Exchange-correlation= PBE
                           (   1   4   3   4   0   0   0)

     celldm(1)=  10.861462  celldm(2)=   0.000000  celldm(3)=   0.000000
     celldm(4)=   0.000000  celldm(5)=   0.000000  celldm(6)=   0.000000

     crystal axes: (cart. coord. in units of alat)
               a(1) = (  -0.500000   0.000000   0.500000 )  
               a(2) = (   0.000000   0.500000   0.500000 )  
               a(3) = (  -0.500000   0.500000   0.000000 )  

     reciprocal axes: (cart. coord. in units 2 pi/alat)
               b(1) = ( -1.000000 -1.000000  1.000000 )  
               b(2) = (  1.000000  1.000000  1.000000 )  
               b(3) = ( -1.000000  1.000000 -1.000000 )  


     PseudoPot. # 1 for Ga read from file:
     /home/bonacc_m/Downloads/sg15_oncv_upf_2020-02-06/Ga_ONCV_PBE-1.2.upf
     MD5 check sum: 9961a622ff199abf6dfec9a0a10b8555
     Pseudo is Norm-conserving, Zval = 13.0
     Generated using ONCVPSP code by D. R. Hamann
     Using radial grid of  602 points,  6 beta functions with: 
                l(1) =   0
                l(2) =   0
                l(3) =   1
                l(4) =   1
                l(5) =   2
                l(6) =   2

     PseudoPot. # 2 for As read from file:
     /home/bonacc_m/Downloads/sg15_oncv_upf_2020-02-06/As_ONCV_PBE-1.2.upf
     MD5 check sum: a2ff92a4799c87c945fff9e6739df4dd
     Pseudo is Norm-conserving, Zval =  5.0
     Generated using ONCVPSP code by D. R. Hamann
     Using radial grid of  602 points,  6 beta functions with: 
                l(1) =   0
                l(2) =   0
                l(3) =   1
                l(4) =   1
                l(5) =   2
                l(6) =   2

     atomic species   valence    mass     pseudopotential
        Ga            13.00    69.72300     Ga( 1.00)
        As             5.00    74.92159     As( 1.00)

     24 Sym. Ops. (no inversion) found



   Cartesian axes

     site n.     atom                  positions (alat units)
         1           Ga  tau(   1) = (   0.0000000   0.0000000   0.0000000  )
         2           As  tau(   2) = (   0.2500000   0.2500000   0.2500000  )

     number of k points=  3744

     Number of k-points >= 100: set verbosity='high' to print them.

     Dense  grid:    87651 G-vectors     FFT dimensions: (  64,  64,  64)

     Smooth grid:    30923 G-vectors     FFT dimensions: (  45,  45,  45)

     Estimated max dynamical RAM per process >       7.99 MB

     Estimated total dynamical RAM >      95.93 MB

     The potential is recalculated from file :
     /home/bonacc_m/Documents/phonons/GaAs/TMP/_ph0/GaAs.save/charge-density

     Starting wfcs are    0 atomic +    9 random wfcs

     Band Structure Calculation
     Davidson diagonalization with overlap

     ethr =  5.56E-11,  avg # of iterations = 18.0

     total cpu time spent up to now is      484.4 secs

     End of band structure calculation

     Number of k-points >= 100: set verbosity='high' to print the bands.

     highest occupied level (ev):     6.5664

     Writing config to output data dir /home/bonacc_m/Documents/phonons/GaAs/TMP/_ph0/GaAs.save/

     GaAs                                                                       

     bravais-lattice index     =            2
     lattice parameter (alat)  =      10.8615  a.u.
     unit-cell volume          =     320.3354 (a.u.)^3
     number of atoms/cell      =            2
     number of atomic types    =            2
     kinetic-energy cut-off    =      80.0000  Ry
     charge density cut-off    =     640.0000  Ry
     convergence threshold     =      1.0E-13
     beta                      =       0.7000
     number of iterations used =            4
     Exchange-correlation= PBE
                           (   1   4   3   4   0   0   0)


     celldm(1)=   10.86146  celldm(2)=    0.00000  celldm(3)=    0.00000
     celldm(4)=    0.00000  celldm(5)=    0.00000  celldm(6)=    0.00000

     crystal axes: (cart. coord. in units of alat)
               a(1) = ( -0.5000  0.0000  0.5000 )  
               a(2) = (  0.0000  0.5000  0.5000 )  
               a(3) = ( -0.5000  0.5000  0.0000 )  

     reciprocal axes: (cart. coord. in units 2 pi/alat)
               b(1) = ( -1.0000 -1.0000  1.0000 )  
               b(2) = (  1.0000  1.0000  1.0000 )  
               b(3) = ( -1.0000  1.0000 -1.0000 )  


     Atoms inside the unit cell: 

     Cartesian axes

     site n.  atom      mass           positions (alat units)
        1     Ga  69.7230   tau(    1) = (    0.00000    0.00000    0.00000  )
        2     As  74.9216   tau(    2) = (    0.25000    0.25000    0.25000  )

     Computing dynamical matrix for 
                    q = (   0.0000000   0.5000000   0.0000000 )

      4 Sym.Ops. (no q -> -q+G )


     G cutoff = 1912.4796  (   7302 G-vectors)     FFT grid: ( 64, 64, 64)
     G cutoff =  956.2398  (   2577 G-vectors)  smooth grid: ( 45, 45, 45)
     number of k points=  3744

     PseudoPot. # 1 for Ga read from file:
     /home/bonacc_m/Downloads/sg15_oncv_upf_2020-02-06/Ga_ONCV_PBE-1.2.upf
     MD5 check sum: 9961a622ff199abf6dfec9a0a10b8555
     Pseudo is Norm-conserving, Zval = 13.0
     Generated using ONCVPSP code by D. R. Hamann
     Using radial grid of  602 points,  6 beta functions with: 
                l(1) =   0
                l(2) =   0
                l(3) =   1
                l(4) =   1
                l(5) =   2
                l(6) =   2

     PseudoPot. # 2 for As read from file:
     /home/bonacc_m/Downloads/sg15_oncv_upf_2020-02-06/As_ONCV_PBE-1.2.upf
     MD5 check sum: a2ff92a4799c87c945fff9e6739df4dd
     Pseudo is Norm-conserving, Zval =  5.0
     Generated using ONCVPSP code by D. R. Hamann
     Using radial grid of  602 points,  6 beta functions with: 
                l(1) =   0
                l(2) =   0
                l(3) =   1
                l(4) =   1
                l(5) =   2
                l(6) =   2

     Mode symmetry, C_2v (mm2)  point group:


     Atomic displacements:
     There are    6 irreducible representations

     Representation     1      1 modes -  To be done

     Representation     2      1 modes -  To be done

     Representation     3      1 modes -  To be done

     Representation     4      1 modes -  To be done

     Representation     5      1 modes -  To be done

     Representation     6      1 modes -  To be done



     Alpha used in Ewald sum =   2.8000
     PHONON       :      1h23m CPU      1h24m WALL



     Representation #   1 mode #   1

     Self-consistent Calculation

      iter #   1 total cpu time :  5150.1 secs   av.it.:   7.5
      thresh= 1.000E-02 alpha_mix =  0.700 |ddv_scf|^2 =  5.056E-05

      iter #   2 total cpu time :  5237.8 secs   av.it.:  13.8
      thresh= 7.111E-04 alpha_mix =  0.700 |ddv_scf|^2 =  6.457E-04

      iter #   3 total cpu time :  5313.8 secs   av.it.:  11.3
      thresh= 2.541E-03 alpha_mix =  0.700 |ddv_scf|^2 =  2.115E-08

      iter #   4 total cpu time :  5411.3 secs   av.it.:  15.2
      thresh= 1.454E-05 alpha_mix =  0.700 |ddv_scf|^2 =  3.055E-09

      iter #   5 total cpu time :  5505.4 secs   av.it.:  14.8
      thresh= 5.527E-06 alpha_mix =  0.700 |ddv_scf|^2 =  1.329E-11

      iter #   6 total cpu time :  5599.7 secs   av.it.:  15.0
      thresh= 3.645E-07 alpha_mix =  0.700 |ddv_scf|^2 =  1.057E-12

      iter #   7 total cpu time :  5688.2 secs   av.it.:  14.0
      thresh= 1.028E-07 alpha_mix =  0.700 |ddv_scf|^2 =  1.548E-14

     End of self-consistent calculation

     Convergence has been achieved 


     Representation #   2 mode #   2

     Self-consistent Calculation

      iter #   1 total cpu time :  5766.5 secs   av.it.:  11.3
      thresh= 1.000E-02 alpha_mix =  0.700 |ddv_scf|^2 =  3.520E-04

      iter #   2 total cpu time :  5865.4 secs   av.it.:  14.9
      thresh= 1.876E-03 alpha_mix =  0.700 |ddv_scf|^2 =  4.343E-03

      iter #   3 total cpu time :  5945.4 secs   av.it.:  11.7
      thresh= 6.590E-03 alpha_mix =  0.700 |ddv_scf|^2 =  1.656E-06

      iter #   4 total cpu time :  6045.3 secs   av.it.:  15.7
      thresh= 1.287E-04 alpha_mix =  0.700 |ddv_scf|^2 =  9.033E-09

      iter #   5 total cpu time :  6144.4 secs   av.it.:  15.1
      thresh= 9.504E-06 alpha_mix =  0.700 |ddv_scf|^2 =  1.224E-09

      iter #   6 total cpu time :  6244.2 secs   av.it.:  15.0
      thresh= 3.498E-06 alpha_mix =  0.700 |ddv_scf|^2 =  3.775E-11

      iter #   7 total cpu time :  6336.1 secs   av.it.:  14.1
      thresh= 6.144E-07 alpha_mix =  0.700 |ddv_scf|^2 =  8.760E-13

      iter #   8 total cpu time :  6435.9 secs   av.it.:  15.5
      thresh= 9.360E-08 alpha_mix =  0.700 |ddv_scf|^2 =  3.880E-13

      iter #   9 total cpu time :  6532.0 secs   av.it.:  15.0
      thresh= 6.229E-08 alpha_mix =  0.700 |ddv_scf|^2 =  4.697E-13

      iter #  10 total cpu time :  6621.6 secs   av.it.:  13.9
      thresh= 6.854E-08 alpha_mix =  0.700 |ddv_scf|^2 =  1.906E-13

      iter #  11 total cpu time :  6698.5 secs   av.it.:  11.9
      thresh= 4.366E-08 alpha_mix =  0.700 |ddv_scf|^2 =  7.357E-15

     End of self-consistent calculation

     Convergence has been achieved 


     Representation #   3 mode #   3

     Self-consistent Calculation

      iter #   1 total cpu time :  6774.2 secs   av.it.:  11.0
      thresh= 1.000E-02 alpha_mix =  0.700 |ddv_scf|^2 =  1.036E-05

      iter #   2 total cpu time :  6880.9 secs   av.it.:  16.8
      thresh= 3.218E-04 alpha_mix =  0.700 |ddv_scf|^2 =  4.469E-06

      iter #   3 total cpu time :  6980.7 secs   av.it.:  15.8
      thresh= 2.114E-04 alpha_mix =  0.700 |ddv_scf|^2 =  3.259E-09

      iter #   4 total cpu time :  7084.3 secs   av.it.:  15.9
      thresh= 5.708E-06 alpha_mix =  0.700 |ddv_scf|^2 =  2.074E-10

      iter #   5 total cpu time :  7179.7 secs   av.it.:  14.9
      thresh= 1.440E-06 alpha_mix =  0.700 |ddv_scf|^2 =  1.140E-12

      iter #   6 total cpu time :  7274.0 secs   av.it.:  14.2
      thresh= 1.067E-07 alpha_mix =  0.700 |ddv_scf|^2 =  6.259E-14

     End of self-consistent calculation

     Convergence has been achieved 


     Representation #   4 mode #   4

     Self-consistent Calculation

      iter #   1 total cpu time :  7332.3 secs   av.it.:   7.0
      thresh= 1.000E-02 alpha_mix =  0.700 |ddv_scf|^2 =  1.846E-07

      iter #   2 total cpu time :  7436.6 secs   av.it.:  15.9
      thresh= 4.297E-05 alpha_mix =  0.700 |ddv_scf|^2 =  3.872E-08

      iter #   3 total cpu time :  7541.9 secs   av.it.:  15.8
      thresh= 1.968E-05 alpha_mix =  0.700 |ddv_scf|^2 =  3.870E-10

      iter #   4 total cpu time :  7641.3 secs   av.it.:  15.9
      thresh= 1.967E-06 alpha_mix =  0.700 |ddv_scf|^2 =  3.335E-12

      iter #   5 total cpu time :  7734.1 secs   av.it.:  14.7
      thresh= 1.826E-07 alpha_mix =  0.700 |ddv_scf|^2 =  1.410E-14

     End of self-consistent calculation

     Convergence has been achieved 


     Representation #   5 mode #   5

     Self-consistent Calculation

      iter #   1 total cpu time :  7789.7 secs   av.it.:   7.0
      thresh= 1.000E-02 alpha_mix =  0.700 |ddv_scf|^2 =  1.846E-07

      iter #   2 total cpu time :  7888.6 secs   av.it.:  15.9
      thresh= 4.297E-05 alpha_mix =  0.700 |ddv_scf|^2 =  3.872E-08

      iter #   3 total cpu time :  7987.4 secs   av.it.:  15.8
      thresh= 1.968E-05 alpha_mix =  0.700 |ddv_scf|^2 =  3.870E-10

      iter #   4 total cpu time :  8086.9 secs   av.it.:  15.9
      thresh= 1.967E-06 alpha_mix =  0.700 |ddv_scf|^2 =  3.335E-12

      iter #   5 total cpu time :  8181.3 secs   av.it.:  14.7
      thresh= 1.826E-07 alpha_mix =  0.700 |ddv_scf|^2 =  1.410E-14

     End of self-consistent calculation

     Convergence has been achieved 


     Representation #   6 mode #   6

     Self-consistent Calculation

      iter #   1 total cpu time :  8260.5 secs   av.it.:  11.0
      thresh= 1.000E-02 alpha_mix =  0.700 |ddv_scf|^2 =  1.036E-05

      iter #   2 total cpu time :  8365.9 secs   av.it.:  16.8
      thresh= 3.218E-04 alpha_mix =  0.700 |ddv_scf|^2 =  4.469E-06

      iter #   3 total cpu time :  8464.6 secs   av.it.:  15.8
      thresh= 2.114E-04 alpha_mix =  0.700 |ddv_scf|^2 =  3.257E-09

      iter #   4 total cpu time :  8562.6 secs   av.it.:  15.9
      thresh= 5.707E-06 alpha_mix =  0.700 |ddv_scf|^2 =  2.073E-10

      iter #   5 total cpu time :  8655.6 secs   av.it.:  14.9
      thresh= 1.440E-06 alpha_mix =  0.700 |ddv_scf|^2 =  1.139E-12

      iter #   6 total cpu time :  8746.3 secs   av.it.:  14.2
      thresh= 1.067E-07 alpha_mix =  0.700 |ddv_scf|^2 =  6.257E-14

     End of self-consistent calculation

     Convergence has been achieved 

     Number of q in the star =    6
     List of q in the star:
          1   0.000000000   0.500000000   0.000000000
          2  -0.500000000   0.000000000   0.000000000
          3   0.000000000  -0.500000000   0.000000000
          4   0.000000000   0.000000000   0.500000000
          5   0.000000000   0.000000000  -0.500000000
          6   0.500000000   0.000000000   0.000000000

     Diagonalizing the dynamical matrix

     q = (    0.000000000   0.500000000   0.000000000 ) 

 **************************************************************************
     freq (    1) =       2.074610 [THz] =      69.201531 [cm-1]
     freq (    2) =       2.074610 [THz] =      69.201531 [cm-1]
     freq (    3) =       3.742315 [THz] =     124.830201 [cm-1]
     freq (    4) =       7.185179 [THz] =     239.671784 [cm-1]
     freq (    5) =       7.185179 [THz] =     239.671784 [cm-1]
     freq (    6) =       7.838894 [THz] =     261.477370 [cm-1]
 **************************************************************************

     Mode symmetry, C_2v (mm2)  point group:

     freq (   1-   1) =         69.2  [cm-1]   --> B_1  D_3  S_3      
     freq (   2-   2) =         69.2  [cm-1]   --> B_2  D_4  S_4      
     freq (   3-   3) =        124.8  [cm-1]   --> A_1  D_1  S_1      
     freq (   4-   4) =        239.7  [cm-1]   --> B_1  D_3  S_3      
     freq (   5-   5) =        239.7  [cm-1]   --> B_2  D_4  S_4      
     freq (   6-   6) =        261.5  [cm-1]   --> A_1  D_1  S_1      

     Calculation of q =    0.7500000  -0.2500000   0.7500000

     Parallelization info
     --------------------
     sticks:   dense  smooth     PW     G-vecs:    dense   smooth      PW
     Min         215     107     36                 7301     2576     514
     Max         216     108     37                 7306     2581     518
     Sum        2587    1285    439                87651    30923    6183

     Using Slab Decomposition


     Title: 
     GaAs                                                                       


     bravais-lattice index     =            2
     lattice parameter (alat)  =      10.8615  a.u.
     unit-cell volume          =     320.3354 (a.u.)^3
     number of atoms/cell      =            2
     number of atomic types    =            2
     number of electrons       =        18.00
     number of Kohn-Sham states=            9
     kinetic-energy cutoff     =      80.0000  Ry
     charge density cutoff     =     640.0000  Ry
     Exchange-correlation= PBE
                           (   1   4   3   4   0   0   0)

     celldm(1)=  10.861462  celldm(2)=   0.000000  celldm(3)=   0.000000
     celldm(4)=   0.000000  celldm(5)=   0.000000  celldm(6)=   0.000000

     crystal axes: (cart. coord. in units of alat)
               a(1) = (  -0.500000   0.000000   0.500000 )  
               a(2) = (   0.000000   0.500000   0.500000 )  
               a(3) = (  -0.500000   0.500000   0.000000 )  

     reciprocal axes: (cart. coord. in units 2 pi/alat)
               b(1) = ( -1.000000 -1.000000  1.000000 )  
               b(2) = (  1.000000  1.000000  1.000000 )  
               b(3) = ( -1.000000  1.000000 -1.000000 )  


     PseudoPot. # 1 for Ga read from file:
     /home/bonacc_m/Downloads/sg15_oncv_upf_2020-02-06/Ga_ONCV_PBE-1.2.upf
     MD5 check sum: 9961a622ff199abf6dfec9a0a10b8555
     Pseudo is Norm-conserving, Zval = 13.0
     Generated using ONCVPSP code by D. R. Hamann
     Using radial grid of  602 points,  6 beta functions with: 
                l(1) =   0
                l(2) =   0
                l(3) =   1
                l(4) =   1
                l(5) =   2
                l(6) =   2

     PseudoPot. # 2 for As read from file:
     /home/bonacc_m/Downloads/sg15_oncv_upf_2020-02-06/As_ONCV_PBE-1.2.upf
     MD5 check sum: a2ff92a4799c87c945fff9e6739df4dd
     Pseudo is Norm-conserving, Zval =  5.0
     Generated using ONCVPSP code by D. R. Hamann
     Using radial grid of  602 points,  6 beta functions with: 
                l(1) =   0
                l(2) =   0
                l(3) =   1
                l(4) =   1
                l(5) =   2
                l(6) =   2

     atomic species   valence    mass     pseudopotential
        Ga            13.00    69.72300     Ga( 1.00)
        As             5.00    74.92159     As( 1.00)

     24 Sym. Ops. (no inversion) found



   Cartesian axes

     site n.     atom                  positions (alat units)
         1           Ga  tau(   1) = (   0.0000000   0.0000000   0.0000000  )
         2           As  tau(   2) = (   0.2500000   0.2500000   0.2500000  )

     number of k points=  7200

     Number of k-points >= 100: set verbosity='high' to print them.

     Dense  grid:    87651 G-vectors     FFT dimensions: (  64,  64,  64)

     Smooth grid:    30923 G-vectors     FFT dimensions: (  45,  45,  45)

     Estimated max dynamical RAM per process >       8.05 MB

     Estimated total dynamical RAM >      96.64 MB

     The potential is recalculated from file :
     /home/bonacc_m/Documents/phonons/GaAs/TMP/_ph0/GaAs.save/charge-density

     Starting wfcs are    0 atomic +    9 random wfcs

     Band Structure Calculation
     Davidson diagonalization with overlap

     ethr =  5.56E-11,  avg # of iterations = 18.0

     total cpu time spent up to now is      930.3 secs

     End of band structure calculation

     Number of k-points >= 100: set verbosity='high' to print the bands.

     highest occupied level (ev):     6.5664

     Writing config to output data dir /home/bonacc_m/Documents/phonons/GaAs/TMP/_ph0/GaAs.save/

     GaAs                                                                       

     bravais-lattice index     =            2
     lattice parameter (alat)  =      10.8615  a.u.
     unit-cell volume          =     320.3354 (a.u.)^3
     number of atoms/cell      =            2
     number of atomic types    =            2
     kinetic-energy cut-off    =      80.0000  Ry
     charge density cut-off    =     640.0000  Ry
     convergence threshold     =      1.0E-13
     beta                      =       0.7000
     number of iterations used =            4
     Exchange-correlation= PBE
                           (   1   4   3   4   0   0   0)


     celldm(1)=   10.86146  celldm(2)=    0.00000  celldm(3)=    0.00000
     celldm(4)=    0.00000  celldm(5)=    0.00000  celldm(6)=    0.00000

     crystal axes: (cart. coord. in units of alat)
               a(1) = ( -0.5000  0.0000  0.5000 )  
               a(2) = (  0.0000  0.5000  0.5000 )  
               a(3) = ( -0.5000  0.5000  0.0000 )  

     reciprocal axes: (cart. coord. in units 2 pi/alat)
               b(1) = ( -1.0000 -1.0000  1.0000 )  
               b(2) = (  1.0000  1.0000  1.0000 )  
               b(3) = ( -1.0000  1.0000 -1.0000 )  


     Atoms inside the unit cell: 

     Cartesian axes

     site n.  atom      mass           positions (alat units)
        1     Ga  69.7230   tau(    1) = (    0.00000    0.00000    0.00000  )
        2     As  74.9216   tau(    2) = (    0.25000    0.25000    0.25000  )

     Computing dynamical matrix for 
                    q = (   0.7500000  -0.2500000   0.7500000 )

      2 Sym.Ops. (no q -> -q+G )


     G cutoff = 1912.4796  (   7302 G-vectors)     FFT grid: ( 64, 64, 64)
     G cutoff =  956.2398  (   2577 G-vectors)  smooth grid: ( 45, 45, 45)
     number of k points=  7200

     PseudoPot. # 1 for Ga read from file:
     /home/bonacc_m/Downloads/sg15_oncv_upf_2020-02-06/Ga_ONCV_PBE-1.2.upf
     MD5 check sum: 9961a622ff199abf6dfec9a0a10b8555
     Pseudo is Norm-conserving, Zval = 13.0
     Generated using ONCVPSP code by D. R. Hamann
     Using radial grid of  602 points,  6 beta functions with: 
                l(1) =   0
                l(2) =   0
                l(3) =   1
                l(4) =   1
                l(5) =   2
                l(6) =   2

     PseudoPot. # 2 for As read from file:
     /home/bonacc_m/Downloads/sg15_oncv_upf_2020-02-06/As_ONCV_PBE-1.2.upf
     MD5 check sum: a2ff92a4799c87c945fff9e6739df4dd
     Pseudo is Norm-conserving, Zval =  5.0
     Generated using ONCVPSP code by D. R. Hamann
     Using radial grid of  602 points,  6 beta functions with: 
                l(1) =   0
                l(2) =   0
                l(3) =   1
                l(4) =   1
                l(5) =   2
                l(6) =   2

     Mode symmetry, C_s (m)     point group:


     Atomic displacements:
     There are    6 irreducible representations

     Representation     1      1 modes -  To be done

     Representation     2      1 modes -  To be done

     Representation     3      1 modes -  To be done

     Representation     4      1 modes -  To be done

     Representation     5      1 modes -  To be done

     Representation     6      1 modes -  To be done



     Alpha used in Ewald sum =   2.8000
     PHONON       :      2h30m CPU      2h33m WALL



     Representation #   1 mode #   1

     Self-consistent Calculation

      iter #   1 total cpu time :  9349.6 secs   av.it.:  11.3
      thresh= 1.000E-02 alpha_mix =  0.700 |ddv_scf|^2 =  5.543E-05

      iter #   2 total cpu time :  9541.5 secs   av.it.:  16.2
      thresh= 7.445E-04 alpha_mix =  0.700 |ddv_scf|^2 =  1.463E-04

      iter #   3 total cpu time :  9709.6 secs   av.it.:  14.0
      thresh= 1.210E-03 alpha_mix =  0.700 |ddv_scf|^2 =  1.231E-06

      iter #   4 total cpu time :  9888.7 secs   av.it.:  15.0
      thresh= 1.109E-04 alpha_mix =  0.700 |ddv_scf|^2 =  3.330E-08

      iter #   5 total cpu time : 10069.5 secs   av.it.:  15.2
      thresh= 1.825E-05 alpha_mix =  0.700 |ddv_scf|^2 =  2.353E-09

      iter #   6 total cpu time : 10243.8 secs   av.it.:  14.8
      thresh= 4.851E-06 alpha_mix =  0.700 |ddv_scf|^2 =  1.279E-10

      iter #   7 total cpu time : 10427.1 secs   av.it.:  15.5
      thresh= 1.131E-06 alpha_mix =  0.700 |ddv_scf|^2 =  2.091E-11

      iter #   8 total cpu time : 10608.9 secs   av.it.:  15.3
      thresh= 4.573E-07 alpha_mix =  0.700 |ddv_scf|^2 =  4.321E-12

      iter #   9 total cpu time : 10790.1 secs   av.it.:  15.1
      thresh= 2.079E-07 alpha_mix =  0.700 |ddv_scf|^2 =  2.117E-13

      iter #  10 total cpu time : 10979.4 secs   av.it.:  15.9
      thresh= 4.601E-08 alpha_mix =  0.700 |ddv_scf|^2 =  1.916E-13

      iter #  11 total cpu time : 11145.2 secs   av.it.:  13.9
      thresh= 4.377E-08 alpha_mix =  0.700 |ddv_scf|^2 =  7.633E-15

     End of self-consistent calculation

     Convergence has been achieved 


     Representation #   2 mode #   2

     Self-consistent Calculation

      iter #   1 total cpu time : 11255.7 secs   av.it.:   7.8
      thresh= 1.000E-02 alpha_mix =  0.700 |ddv_scf|^2 =  2.747E-06

      iter #   2 total cpu time : 11436.7 secs   av.it.:  15.2
      thresh= 1.657E-04 alpha_mix =  0.700 |ddv_scf|^2 =  7.077E-06

      iter #   3 total cpu time : 11600.2 secs   av.it.:  13.6
      thresh= 2.660E-04 alpha_mix =  0.700 |ddv_scf|^2 =  3.493E-08

      iter #   4 total cpu time : 11775.5 secs   av.it.:  14.8
      thresh= 1.869E-05 alpha_mix =  0.700 |ddv_scf|^2 =  4.946E-10

      iter #   5 total cpu time : 11957.5 secs   av.it.:  15.3
      thresh= 2.224E-06 alpha_mix =  0.700 |ddv_scf|^2 =  3.574E-11

      iter #   6 total cpu time : 12137.0 secs   av.it.:  15.1
      thresh= 5.978E-07 alpha_mix =  0.700 |ddv_scf|^2 =  2.815E-12

      iter #   7 total cpu time : 12317.7 secs   av.it.:  15.2
      thresh= 1.678E-07 alpha_mix =  0.700 |ddv_scf|^2 =  4.486E-13

      iter #   8 total cpu time : 12495.0 secs   av.it.:  14.9
      thresh= 6.698E-08 alpha_mix =  0.700 |ddv_scf|^2 =  1.153E-14

     End of self-consistent calculation

     Convergence has been achieved 


     Representation #   3 mode #   3

     Self-consistent Calculation

      iter #   1 total cpu time : 12602.5 secs   av.it.:   7.4
      thresh= 1.000E-02 alpha_mix =  0.700 |ddv_scf|^2 =  2.560E-06

      iter #   2 total cpu time : 12781.6 secs   av.it.:  15.1
      thresh= 1.600E-04 alpha_mix =  0.700 |ddv_scf|^2 =  6.121E-06

      iter #   3 total cpu time : 12945.0 secs   av.it.:  13.6
      thresh= 2.474E-04 alpha_mix =  0.700 |ddv_scf|^2 =  6.142E-08

      iter #   4 total cpu time : 13115.5 secs   av.it.:  14.2
      thresh= 2.478E-05 alpha_mix =  0.700 |ddv_scf|^2 =  5.168E-10

      iter #   5 total cpu time : 13296.8 secs   av.it.:  15.2
      thresh= 2.273E-06 alpha_mix =  0.700 |ddv_scf|^2 =  2.163E-11

      iter #   6 total cpu time : 13479.8 secs   av.it.:  15.4
      thresh= 4.651E-07 alpha_mix =  0.700 |ddv_scf|^2 =  1.461E-12

      iter #   7 total cpu time : 13664.0 secs   av.it.:  15.5
      thresh= 1.209E-07 alpha_mix =  0.700 |ddv_scf|^2 =  2.679E-13

      iter #   8 total cpu time : 13842.2 secs   av.it.:  15.0
      thresh= 5.176E-08 alpha_mix =  0.700 |ddv_scf|^2 =  8.029E-15

     End of self-consistent calculation

     Convergence has been achieved 


     Representation #   4 mode #   4

     Self-consistent Calculation

      iter #   1 total cpu time : 13988.5 secs   av.it.:  11.1
      thresh= 1.000E-02 alpha_mix =  0.700 |ddv_scf|^2 =  1.798E-05

      iter #   2 total cpu time : 14186.4 secs   av.it.:  16.7
      thresh= 4.241E-04 alpha_mix =  0.700 |ddv_scf|^2 =  1.997E-05

      iter #   3 total cpu time : 14363.5 secs   av.it.:  14.9
      thresh= 4.469E-04 alpha_mix =  0.700 |ddv_scf|^2 =  1.102E-06

      iter #   4 total cpu time : 14537.1 secs   av.it.:  14.5
      thresh= 1.050E-04 alpha_mix =  0.700 |ddv_scf|^2 =  2.207E-08

      iter #   5 total cpu time : 14718.5 secs   av.it.:  15.2
      thresh= 1.485E-05 alpha_mix =  0.700 |ddv_scf|^2 =  1.726E-09

      iter #   6 total cpu time : 14896.8 secs   av.it.:  15.0
      thresh= 4.155E-06 alpha_mix =  0.700 |ddv_scf|^2 =  1.906E-10

      iter #   7 total cpu time : 15078.5 secs   av.it.:  15.2
      thresh= 1.380E-06 alpha_mix =  0.700 |ddv_scf|^2 =  1.653E-11

      iter #   8 total cpu time : 15259.8 secs   av.it.:  15.3
      thresh= 4.065E-07 alpha_mix =  0.700 |ddv_scf|^2 =  1.799E-12

      iter #   9 total cpu time : 15448.9 secs   av.it.:  16.0
      thresh= 1.341E-07 alpha_mix =  0.700 |ddv_scf|^2 =  3.014E-13

      iter #  10 total cpu time : 15635.5 secs   av.it.:  15.7
      thresh= 5.490E-08 alpha_mix =  0.700 |ddv_scf|^2 =  2.032E-13

      iter #  11 total cpu time : 15804.1 secs   av.it.:  14.0
      thresh= 4.508E-08 alpha_mix =  0.700 |ddv_scf|^2 =  7.235E-15

     End of self-consistent calculation

     Convergence has been achieved 


     Representation #   5 mode #   5

     Self-consistent Calculation

      iter #   1 total cpu time : 15908.2 secs   av.it.:   7.1
      thresh= 1.000E-02 alpha_mix =  0.700 |ddv_scf|^2 =  2.160E-07

      iter #   2 total cpu time : 16098.6 secs   av.it.:  15.9
      thresh= 4.647E-05 alpha_mix =  0.700 |ddv_scf|^2 =  5.431E-08

      iter #   3 total cpu time : 16286.6 secs   av.it.:  15.8
      thresh= 2.330E-05 alpha_mix =  0.700 |ddv_scf|^2 =  4.155E-10

      iter #   4 total cpu time : 16476.0 secs   av.it.:  15.9
      thresh= 2.038E-06 alpha_mix =  0.700 |ddv_scf|^2 =  3.470E-12

      iter #   5 total cpu time : 16650.5 secs   av.it.:  14.7
      thresh= 1.863E-07 alpha_mix =  0.700 |ddv_scf|^2 =  1.869E-14

     End of self-consistent calculation

     Convergence has been achieved 


     Representation #   6 mode #   6

     Self-consistent Calculation

      iter #   1 total cpu time : 16795.4 secs   av.it.:  11.0
      thresh= 1.000E-02 alpha_mix =  0.700 |ddv_scf|^2 =  1.110E-05

      iter #   2 total cpu time : 16993.3 secs   av.it.:  16.8
      thresh= 3.332E-04 alpha_mix =  0.700 |ddv_scf|^2 =  5.258E-06

      iter #   3 total cpu time : 17181.6 secs   av.it.:  15.8
      thresh= 2.293E-04 alpha_mix =  0.700 |ddv_scf|^2 =  4.043E-09

      iter #   4 total cpu time : 17371.0 secs   av.it.:  15.9
      thresh= 6.359E-06 alpha_mix =  0.700 |ddv_scf|^2 =  2.180E-10

      iter #   5 total cpu time : 17548.5 secs   av.it.:  14.9
      thresh= 1.477E-06 alpha_mix =  0.700 |ddv_scf|^2 =  1.244E-12

      iter #   6 total cpu time : 17717.3 secs   av.it.:  14.0
      thresh= 1.115E-07 alpha_mix =  0.700 |ddv_scf|^2 =  7.830E-14

     End of self-consistent calculation

     Convergence has been achieved 

     Number of q in the star =   12
     List of q in the star:
          1   0.750000000  -0.250000000   0.750000000
          2  -0.750000000  -0.250000000  -0.750000000
          3   0.250000000  -0.750000000   0.750000000
          4  -0.750000000   0.250000000   0.750000000
          5   0.750000000   0.250000000  -0.750000000
          6   0.750000000   0.750000000  -0.250000000
          7  -0.750000000  -0.750000000  -0.250000000
          8  -0.750000000   0.750000000   0.250000000
          9  -0.250000000   0.750000000   0.750000000
         10   0.250000000   0.750000000  -0.750000000
         11  -0.250000000  -0.750000000  -0.750000000
         12   0.750000000  -0.750000000   0.250000000
     In addition there is the -q list: 
          1  -0.750000000   0.250000000  -0.750000000
          2   0.750000000   0.250000000   0.750000000
          3  -0.250000000   0.750000000  -0.750000000
          4   0.750000000  -0.250000000  -0.750000000
          5  -0.750000000  -0.250000000   0.750000000
          6  -0.750000000  -0.750000000   0.250000000
          7   0.750000000   0.750000000   0.250000000
          8   0.750000000  -0.750000000  -0.250000000
          9   0.250000000  -0.750000000  -0.750000000
         10  -0.250000000  -0.750000000   0.750000000
         11   0.250000000   0.750000000   0.750000000
         12  -0.750000000   0.750000000  -0.250000000

     Diagonalizing the dynamical matrix

     q = (    0.750000000  -0.250000000   0.750000000 ) 

 **************************************************************************
     freq (    1) =       2.293778 [THz] =      76.512185 [cm-1]
     freq (    2) =       2.892508 [THz] =      96.483680 [cm-1]
     freq (    3) =       5.070917 [THz] =     169.147592 [cm-1]
     freq (    4) =       6.580905 [THz] =     219.515367 [cm-1]
     freq (    5) =       7.133015 [THz] =     237.931773 [cm-1]
     freq (    6) =       7.462020 [THz] =     248.906191 [cm-1]
 **************************************************************************

     Mode symmetry, C_s (m)     point group:

     freq (   1-   1) =         76.5  [cm-1]   --> A''                
     freq (   2-   2) =         96.5  [cm-1]   --> A'                 
     freq (   3-   3) =        169.1  [cm-1]   --> A'                 
     freq (   4-   4) =        219.5  [cm-1]   --> A'                 
     freq (   5-   5) =        237.9  [cm-1]   --> A''                
     freq (   6-   6) =        248.9  [cm-1]   --> A'                 

     Calculation of q =    0.5000000   0.0000000   0.5000000

     Parallelization info
     --------------------
     sticks:   dense  smooth     PW     G-vecs:    dense   smooth      PW
     Min         215     107     35                 7301     2576     479
     Max         216     108     36                 7306     2581     483
     Sum        2587    1285    421                87651    30923    5769

     Using Slab Decomposition


     Title: 
     GaAs                                                                       


     bravais-lattice index     =            2
     lattice parameter (alat)  =      10.8615  a.u.
     unit-cell volume          =     320.3354 (a.u.)^3
     number of atoms/cell      =            2
     number of atomic types    =            2
     number of electrons       =        18.00
     number of Kohn-Sham states=            9
     kinetic-energy cutoff     =      80.0000  Ry
     charge density cutoff     =     640.0000  Ry
     Exchange-correlation= PBE
                           (   1   4   3   4   0   0   0)

     celldm(1)=  10.861462  celldm(2)=   0.000000  celldm(3)=   0.000000
     celldm(4)=   0.000000  celldm(5)=   0.000000  celldm(6)=   0.000000

     crystal axes: (cart. coord. in units of alat)
               a(1) = (  -0.500000   0.000000   0.500000 )  
               a(2) = (   0.000000   0.500000   0.500000 )  
               a(3) = (  -0.500000   0.500000   0.000000 )  

     reciprocal axes: (cart. coord. in units 2 pi/alat)
               b(1) = ( -1.000000 -1.000000  1.000000 )  
               b(2) = (  1.000000  1.000000  1.000000 )  
               b(3) = ( -1.000000  1.000000 -1.000000 )  


     PseudoPot. # 1 for Ga read from file:
     /home/bonacc_m/Downloads/sg15_oncv_upf_2020-02-06/Ga_ONCV_PBE-1.2.upf
     MD5 check sum: 9961a622ff199abf6dfec9a0a10b8555
     Pseudo is Norm-conserving, Zval = 13.0
     Generated using ONCVPSP code by D. R. Hamann
     Using radial grid of  602 points,  6 beta functions with: 
                l(1) =   0
                l(2) =   0
                l(3) =   1
                l(4) =   1
                l(5) =   2
                l(6) =   2

     PseudoPot. # 2 for As read from file:
     /home/bonacc_m/Downloads/sg15_oncv_upf_2020-02-06/As_ONCV_PBE-1.2.upf
     MD5 check sum: a2ff92a4799c87c945fff9e6739df4dd
     Pseudo is Norm-conserving, Zval =  5.0
     Generated using ONCVPSP code by D. R. Hamann
     Using radial grid of  602 points,  6 beta functions with: 
                l(1) =   0
                l(2) =   0
                l(3) =   1
                l(4) =   1
                l(5) =   2
                l(6) =   2

     atomic species   valence    mass     pseudopotential
        Ga            13.00    69.72300     Ga( 1.00)
        As             5.00    74.92159     As( 1.00)

     24 Sym. Ops. (no inversion) found



   Cartesian axes

     site n.     atom                  positions (alat units)
         1           Ga  tau(   1) = (   0.0000000   0.0000000   0.0000000  )
         2           As  tau(   2) = (   0.2500000   0.2500000   0.2500000  )

     number of k points=  7200

     Number of k-points >= 100: set verbosity='high' to print them.

     Dense  grid:    87651 G-vectors     FFT dimensions: (  64,  64,  64)

     Smooth grid:    30923 G-vectors     FFT dimensions: (  45,  45,  45)

     Estimated max dynamical RAM per process >       8.01 MB

     Estimated total dynamical RAM >      96.18 MB

     The potential is recalculated from file :
     /home/bonacc_m/Documents/phonons/GaAs/TMP/_ph0/GaAs.save/charge-density

     Starting wfcs are    0 atomic +    9 random wfcs

     Band Structure Calculation
     Davidson diagonalization with overlap

     ethr =  5.56E-11,  avg # of iterations = 18.0

     total cpu time spent up to now is     1369.7 secs

     End of band structure calculation

     Number of k-points >= 100: set verbosity='high' to print the bands.

     highest occupied level (ev):     6.5664

     Writing config to output data dir /home/bonacc_m/Documents/phonons/GaAs/TMP/_ph0/GaAs.save/

     GaAs                                                                       

     bravais-lattice index     =            2
     lattice parameter (alat)  =      10.8615  a.u.
     unit-cell volume          =     320.3354 (a.u.)^3
     number of atoms/cell      =            2
     number of atomic types    =            2
     kinetic-energy cut-off    =      80.0000  Ry
     charge density cut-off    =     640.0000  Ry
     convergence threshold     =      1.0E-13
     beta                      =       0.7000
     number of iterations used =            4
     Exchange-correlation= PBE
                           (   1   4   3   4   0   0   0)


     celldm(1)=   10.86146  celldm(2)=    0.00000  celldm(3)=    0.00000
     celldm(4)=    0.00000  celldm(5)=    0.00000  celldm(6)=    0.00000

     crystal axes: (cart. coord. in units of alat)
               a(1) = ( -0.5000  0.0000  0.5000 )  
               a(2) = (  0.0000  0.5000  0.5000 )  
               a(3) = ( -0.5000  0.5000  0.0000 )  

     reciprocal axes: (cart. coord. in units 2 pi/alat)
               b(1) = ( -1.0000 -1.0000  1.0000 )  
               b(2) = (  1.0000  1.0000  1.0000 )  
               b(3) = ( -1.0000  1.0000 -1.0000 )  


     Atoms inside the unit cell: 

     Cartesian axes

     site n.  atom      mass           positions (alat units)
        1     Ga  69.7230   tau(    1) = (    0.00000    0.00000    0.00000  )
        2     As  74.9216   tau(    2) = (    0.25000    0.25000    0.25000  )

     Computing dynamical matrix for 
                    q = (   0.5000000   0.0000000   0.5000000 )

      2 Sym.Ops. (no q -> -q+G )


     G cutoff = 1912.4796  (   7302 G-vectors)     FFT grid: ( 64, 64, 64)
     G cutoff =  956.2398  (   2577 G-vectors)  smooth grid: ( 45, 45, 45)
     number of k points=  7200

     PseudoPot. # 1 for Ga read from file:
     /home/bonacc_m/Downloads/sg15_oncv_upf_2020-02-06/Ga_ONCV_PBE-1.2.upf
     MD5 check sum: 9961a622ff199abf6dfec9a0a10b8555
     Pseudo is Norm-conserving, Zval = 13.0
     Generated using ONCVPSP code by D. R. Hamann
     Using radial grid of  602 points,  6 beta functions with: 
                l(1) =   0
                l(2) =   0
                l(3) =   1
                l(4) =   1
                l(5) =   2
                l(6) =   2

     PseudoPot. # 2 for As read from file:
     /home/bonacc_m/Downloads/sg15_oncv_upf_2020-02-06/As_ONCV_PBE-1.2.upf
     MD5 check sum: a2ff92a4799c87c945fff9e6739df4dd
     Pseudo is Norm-conserving, Zval =  5.0
     Generated using ONCVPSP code by D. R. Hamann
     Using radial grid of  602 points,  6 beta functions with: 
                l(1) =   0
                l(2) =   0
                l(3) =   1
                l(4) =   1
                l(5) =   2
                l(6) =   2

     Mode symmetry, C_s (m)     point group:


     Atomic displacements:
     There are    6 irreducible representations

     Representation     1      1 modes -  To be done

     Representation     2      1 modes -  To be done

     Representation     3      1 modes -  To be done

     Representation     4      1 modes -  To be done

     Representation     5      1 modes -  To be done

     Representation     6      1 modes -  To be done



     Alpha used in Ewald sum =   2.8000
     PHONON       :      4h57m CPU      5h 2m WALL



     Representation #   1 mode #   1

     Self-consistent Calculation

      iter #   1 total cpu time : 18314.2 secs   av.it.:  11.2
      thresh= 1.000E-02 alpha_mix =  0.700 |ddv_scf|^2 =  6.081E-05

      iter #   2 total cpu time : 18503.5 secs   av.it.:  16.0
      thresh= 7.798E-04 alpha_mix =  0.700 |ddv_scf|^2 =  2.677E-04

      iter #   3 total cpu time : 18663.1 secs   av.it.:  13.3
      thresh= 1.636E-03 alpha_mix =  0.700 |ddv_scf|^2 =  1.967E-06

      iter #   4 total cpu time : 18843.1 secs   av.it.:  15.2
      thresh= 1.403E-04 alpha_mix =  0.700 |ddv_scf|^2 =  2.251E-08

      iter #   5 total cpu time : 19024.8 secs   av.it.:  15.5
      thresh= 1.500E-05 alpha_mix =  0.700 |ddv_scf|^2 =  1.804E-09

      iter #   6 total cpu time : 19197.8 secs   av.it.:  14.8
      thresh= 4.247E-06 alpha_mix =  0.700 |ddv_scf|^2 =  1.466E-10

      iter #   7 total cpu time : 19377.7 secs   av.it.:  15.3
      thresh= 1.211E-06 alpha_mix =  0.700 |ddv_scf|^2 =  1.740E-11
[...]
     sticks:   dense  smooth     PW     G-vecs:    dense   smooth      PW
     Min         215     107     36                 7301     2576     498
     Max         216     108     37                 7306     2581     501
     Sum        2587    1285    433                87651    30923    5985

     Using Slab Decomposition


     Title: 
     GaAs                                                                       


     bravais-lattice index     =            2
     lattice parameter (alat)  =      10.8615  a.u.
     unit-cell volume          =     320.3354 (a.u.)^3
     number of atoms/cell      =            2
     number of atomic types    =            2
     number of electrons       =        18.00
     number of Kohn-Sham states=            9
     kinetic-energy cutoff     =      80.0000  Ry
     charge density cutoff     =     640.0000  Ry
     Exchange-correlation= PBE
                           (   1   4   3   4   0   0   0)

     celldm(1)=  10.861462  celldm(2)=   0.000000  celldm(3)=   0.000000
     celldm(4)=   0.000000  celldm(5)=   0.000000  celldm(6)=   0.000000

     crystal axes: (cart. coord. in units of alat)
               a(1) = (  -0.500000   0.000000   0.500000 )  
               a(2) = (   0.000000   0.500000   0.500000 )  
               a(3) = (  -0.500000   0.500000   0.000000 )  

     reciprocal axes: (cart. coord. in units 2 pi/alat)
               b(1) = ( -1.000000 -1.000000  1.000000 )  
               b(2) = (  1.000000  1.000000  1.000000 )  
               b(3) = ( -1.000000  1.000000 -1.000000 )  


     PseudoPot. # 1 for Ga read from file:
     /home/bonacc_m/Downloads/sg15_oncv_upf_2020-02-06/Ga_ONCV_PBE-1.2.upf
     MD5 check sum: 9961a622ff199abf6dfec9a0a10b8555
     Pseudo is Norm-conserving, Zval = 13.0
     Generated using ONCVPSP code by D. R. Hamann
     Using radial grid of  602 points,  6 beta functions with: 
                l(1) =   0
                l(2) =   0
                l(3) =   1
                l(4) =   1
                l(5) =   2
                l(6) =   2

     PseudoPot. # 2 for As read from file:
     /home/bonacc_m/Downloads/sg15_oncv_upf_2020-02-06/As_ONCV_PBE-1.2.upf
     MD5 check sum: a2ff92a4799c87c945fff9e6739df4dd
     Pseudo is Norm-conserving, Zval =  5.0
     Generated using ONCVPSP code by D. R. Hamann
     Using radial grid of  602 points,  6 beta functions with: 
                l(1) =   0
                l(2) =   0
                l(3) =   1
                l(4) =   1
                l(5) =   2
                l(6) =   2

     atomic species   valence    mass     pseudopotential
        Ga            13.00    69.72300     Ga( 1.00)
        As             5.00    74.92159     As( 1.00)

     24 Sym. Ops. (no inversion) found



   Cartesian axes

     site n.     atom                  positions (alat units)
         1           Ga  tau(   1) = (   0.0000000   0.0000000   0.0000000  )
         2           As  tau(   2) = (   0.2500000   0.2500000   0.2500000  )

     number of k points=  3456

     Number of k-points >= 100: set verbosity='high' to print them.

     Dense  grid:    87651 G-vectors     FFT dimensions: (  64,  64,  64)

     Smooth grid:    30923 G-vectors     FFT dimensions: (  45,  45,  45)

     Estimated max dynamical RAM per process >       8.06 MB

     Estimated total dynamical RAM >      96.68 MB

     The potential is recalculated from file :
     /home/bonacc_m/Documents/phonons/GaAs/TMP/_ph0/GaAs.save/charge-density

     Starting wfcs are    0 atomic +    9 random wfcs

     Band Structure Calculation
     Davidson diagonalization with overlap

     ethr =  5.56E-11,  avg # of iterations = 17.9

     total cpu time spent up to now is     1640.0 secs

     End of band structure calculation

     Number of k-points >= 100: set verbosity='high' to print the bands.

     highest occupied level (ev):     6.5664

     Writing config to output data dir /home/bonacc_m/Documents/phonons/GaAs/TMP/_ph0/GaAs.save/

     GaAs                                                                       

     bravais-lattice index     =            2
     lattice parameter (alat)  =      10.8615  a.u.
     unit-cell volume          =     320.3354 (a.u.)^3
     number of atoms/cell      =            2
     number of atomic types    =            2
     kinetic-energy cut-off    =      80.0000  Ry
     charge density cut-off    =     640.0000  Ry
     convergence threshold     =      1.0E-13
     beta                      =       0.7000
     number of iterations used =            4
     Exchange-correlation= PBE
                           (   1   4   3   4   0   0   0)


     celldm(1)=   10.86146  celldm(2)=    0.00000  celldm(3)=    0.00000
     celldm(4)=    0.00000  celldm(5)=    0.00000  celldm(6)=    0.00000

     crystal axes: (cart. coord. in units of alat)
               a(1) = ( -0.5000  0.0000  0.5000 )  
               a(2) = (  0.0000  0.5000  0.5000 )  
               a(3) = ( -0.5000  0.5000  0.0000 )  

     reciprocal axes: (cart. coord. in units 2 pi/alat)
               b(1) = ( -1.0000 -1.0000  1.0000 )  
               b(2) = (  1.0000  1.0000  1.0000 )  
               b(3) = ( -1.0000  1.0000 -1.0000 )  


     Atoms inside the unit cell: 

     Cartesian axes

     site n.  atom      mass           positions (alat units)
        1     Ga  69.7230   tau(    1) = (    0.00000    0.00000    0.00000  )
        2     As  74.9216   tau(    2) = (    0.25000    0.25000    0.25000  )

     Computing dynamical matrix for 
                    q = (  -0.5000000  -1.0000000   0.0000000 )

      4 Sym.Ops. (no q -> -q+G )


     G cutoff = 1912.4796  (   7302 G-vectors)     FFT grid: ( 64, 64, 64)
     G cutoff =  956.2398  (   2577 G-vectors)  smooth grid: ( 45, 45, 45)
     number of k points=  3456

     PseudoPot. # 1 for Ga read from file:
     /home/bonacc_m/Downloads/sg15_oncv_upf_2020-02-06/Ga_ONCV_PBE-1.2.upf
     MD5 check sum: 9961a622ff199abf6dfec9a0a10b8555
     Pseudo is Norm-conserving, Zval = 13.0
     Generated using ONCVPSP code by D. R. Hamann
     Using radial grid of  602 points,  6 beta functions with: 
                l(1) =   0
                l(2) =   0
                l(3) =   1
                l(4) =   1
                l(5) =   2
                l(6) =   2

     PseudoPot. # 2 for As read from file:
     /home/bonacc_m/Downloads/sg15_oncv_upf_2020-02-06/As_ONCV_PBE-1.2.upf
     MD5 check sum: a2ff92a4799c87c945fff9e6739df4dd
     Pseudo is Norm-conserving, Zval =  5.0
     Generated using ONCVPSP code by D. R. Hamann
     Using radial grid of  602 points,  6 beta functions with: 
                l(1) =   0
                l(2) =   0
                l(3) =   1
                l(4) =   1
                l(5) =   2
                l(6) =   2

     Mode symmetry, S_4 (-4)    point group:


     Atomic displacements:
     There are    6 irreducible representations

     Representation     1      1 modes -  To be done

     Representation     2      1 modes -  To be done

     Representation     3      1 modes -  To be done

     Representation     4      1 modes -  To be done

     Representation     5      1 modes -  To be done

     Representation     6      1 modes -  To be done



     Alpha used in Ewald sum =   2.8000
     PHONON       :      7h34m CPU      7h42m WALL



     Representation #   1 mode #   1

     Self-consistent Calculation

      iter #   1 total cpu time : 27811.2 secs   av.it.:   6.7
      thresh= 1.000E-02 alpha_mix =  0.700 |ddv_scf|^2 =  1.399E-06

      iter #   2 total cpu time : 27894.4 secs   av.it.:  14.4
      thresh= 1.183E-04 alpha_mix =  0.700 |ddv_scf|^2 =  1.650E-06

      iter #   3 total cpu time : 27972.4 secs   av.it.:  13.5
      thresh= 1.285E-04 alpha_mix =  0.700 |ddv_scf|^2 =  4.915E-10

      iter #   4 total cpu time : 28060.9 secs   av.it.:  15.5
      thresh= 2.217E-06 alpha_mix =  0.700 |ddv_scf|^2 =  6.187E-12

      iter #   5 total cpu time : 28146.5 secs   av.it.:  15.0
      thresh= 2.487E-07 alpha_mix =  0.700 |ddv_scf|^2 =  4.066E-13

      iter #   6 total cpu time : 28230.6 secs   av.it.:  14.8
      thresh= 6.376E-08 alpha_mix =  0.700 |ddv_scf|^2 =  2.195E-15

     End of self-consistent calculation

     Convergence has been achieved 


     Representation #   2 mode #   2

     Self-consistent Calculation

      iter #   1 total cpu time : 28283.4 secs   av.it.:   7.9
      thresh= 1.000E-02 alpha_mix =  0.700 |ddv_scf|^2 =  9.560E-07

      iter #   2 total cpu time : 28373.0 secs   av.it.:  15.8
      thresh= 9.778E-05 alpha_mix =  0.700 |ddv_scf|^2 =  6.082E-07

      iter #   3 total cpu time : 28458.4 secs   av.it.:  15.0
      thresh= 7.799E-05 alpha_mix =  0.700 |ddv_scf|^2 =  7.819E-10

      iter #   4 total cpu time : 28548.3 secs   av.it.:  15.8
      thresh= 2.796E-06 alpha_mix =  0.700 |ddv_scf|^2 =  9.732E-12

      iter #   5 total cpu time : 28629.5 secs   av.it.:  14.1
      thresh= 3.120E-07 alpha_mix =  0.700 |ddv_scf|^2 =  4.537E-13

      iter #   6 total cpu time : 28707.3 secs   av.it.:  13.4
      thresh= 6.736E-08 alpha_mix =  0.700 |ddv_scf|^2 =  4.255E-15

     End of self-consistent calculation

     Convergence has been achieved 


     Representation #   3 mode #   3

     Self-consistent Calculation

      iter #   1 total cpu time : 28776.9 secs   av.it.:  11.1
      thresh= 1.000E-02 alpha_mix =  0.700 |ddv_scf|^2 =  1.761E-05

      iter #   2 total cpu time : 28872.2 secs   av.it.:  16.7
      thresh= 4.197E-04 alpha_mix =  0.700 |ddv_scf|^2 =  1.611E-05

      iter #   3 total cpu time : 28959.2 secs   av.it.:  15.1
      thresh= 4.014E-04 alpha_mix =  0.700 |ddv_scf|^2 =  3.079E-08

      iter #   4 total cpu time : 29051.5 secs   av.it.:  16.2
      thresh= 1.755E-05 alpha_mix =  0.700 |ddv_scf|^2 =  4.093E-10

      iter #   5 total cpu time : 29135.9 secs   av.it.:  14.8
      thresh= 2.023E-06 alpha_mix =  0.700 |ddv_scf|^2 =  3.054E-12

      iter #   6 total cpu time : 29216.4 secs   av.it.:  14.0
      thresh= 1.748E-07 alpha_mix =  0.700 |ddv_scf|^2 =  1.581E-13

      iter #   7 total cpu time : 29300.9 secs   av.it.:  14.9
      thresh= 3.976E-08 alpha_mix =  0.700 |ddv_scf|^2 =  9.310E-16

     End of self-consistent calculation

     Convergence has been achieved 


     Representation #   4 mode #   4

     Self-consistent Calculation

      iter #   1 total cpu time : 29352.1 secs   av.it.:   7.6
      thresh= 1.000E-02 alpha_mix =  0.700 |ddv_scf|^2 =  5.858E-07

      iter #   2 total cpu time : 29443.5 secs   av.it.:  16.0
      thresh= 7.654E-05 alpha_mix =  0.700 |ddv_scf|^2 =  3.786E-07

      iter #   3 total cpu time : 29530.3 secs   av.it.:  15.3
      thresh= 6.153E-05 alpha_mix =  0.700 |ddv_scf|^2 =  5.944E-10

      iter #   4 total cpu time : 29620.9 secs   av.it.:  15.9
      thresh= 2.438E-06 alpha_mix =  0.700 |ddv_scf|^2 =  4.404E-12

      iter #   5 total cpu time : 29711.1 secs   av.it.:  15.9
      thresh= 2.099E-07 alpha_mix =  0.700 |ddv_scf|^2 =  7.711E-13

      iter #   6 total cpu time : 29798.6 secs   av.it.:  15.2
      thresh= 8.781E-08 alpha_mix =  0.700 |ddv_scf|^2 =  2.206E-15

     End of self-consistent calculation

     Convergence has been achieved 


     Representation #   5 mode #   5

     Self-consistent Calculation

      iter #   1 total cpu time : 29869.1 secs   av.it.:  11.2
      thresh= 1.000E-02 alpha_mix =  0.700 |ddv_scf|^2 =  2.407E-05

      iter #   2 total cpu time : 29964.2 secs   av.it.:  16.7
      thresh= 4.907E-04 alpha_mix =  0.700 |ddv_scf|^2 =  2.291E-05

      iter #   3 total cpu time : 30051.5 secs   av.it.:  15.2
      thresh= 4.787E-04 alpha_mix =  0.700 |ddv_scf|^2 =  3.949E-08

      iter #   4 total cpu time : 30141.1 secs   av.it.:  15.7
      thresh= 1.987E-05 alpha_mix =  0.700 |ddv_scf|^2 =  3.140E-10

      iter #   5 total cpu time : 30227.6 secs   av.it.:  15.1
      thresh= 1.772E-06 alpha_mix =  0.700 |ddv_scf|^2 =  3.450E-12

      iter #   6 total cpu time : 30312.7 secs   av.it.:  14.8
      thresh= 1.858E-07 alpha_mix =  0.700 |ddv_scf|^2 =  2.744E-13

      iter #   7 total cpu time : 30400.2 secs   av.it.:  15.2
      thresh= 5.238E-08 alpha_mix =  0.700 |ddv_scf|^2 =  3.052E-15

     End of self-consistent calculation

     Convergence has been achieved 


     Representation #   6 mode #   6

     Self-consistent Calculation

      iter #   1 total cpu time : 30470.1 secs   av.it.:  11.1
      thresh= 1.000E-02 alpha_mix =  0.700 |ddv_scf|^2 =  2.366E-05

      iter #   2 total cpu time : 30564.3 secs   av.it.:  16.5
      thresh= 4.864E-04 alpha_mix =  0.700 |ddv_scf|^2 =  3.046E-05

      iter #   3 total cpu time : 30648.6 secs   av.it.:  14.8
      thresh= 5.519E-04 alpha_mix =  0.700 |ddv_scf|^2 =  2.436E-07

      iter #   4 total cpu time : 30737.9 secs   av.it.:  15.6
      thresh= 4.936E-05 alpha_mix =  0.700 |ddv_scf|^2 =  8.746E-10

      iter #   5 total cpu time : 30816.8 secs   av.it.:  13.8
      thresh= 2.957E-06 alpha_mix =  0.700 |ddv_scf|^2 =  1.088E-11

      iter #   6 total cpu time : 30901.3 secs   av.it.:  14.8
      thresh= 3.298E-07 alpha_mix =  0.700 |ddv_scf|^2 =  2.631E-13

      iter #   7 total cpu time : 30982.3 secs   av.it.:  14.1
      thresh= 5.129E-08 alpha_mix =  0.700 |ddv_scf|^2 =  6.912E-15

     End of self-consistent calculation

     Convergence has been achieved 

     Number of q in the star =    6
     List of q in the star:
          1  -0.500000000  -1.000000000   0.000000000
          2   0.000000000   1.000000000  -0.500000000
          3   0.000000000   1.000000000   0.500000000
          4   0.500000000   1.000000000   0.000000000
          5   0.000000000  -0.500000000  -1.000000000
          6   0.000000000   0.500000000  -1.000000000

     Diagonalizing the dynamical matrix

     q = (   -0.500000000  -1.000000000   0.000000000 ) 

 **************************************************************************
     freq (    1) =       2.723786 [THz] =      90.855734 [cm-1]
     freq (    2) =       3.070436 [THz] =     102.418721 [cm-1]
     freq (    3) =       5.542547 [THz] =     184.879451 [cm-1]
     freq (    4) =       5.790124 [THz] =     193.137757 [cm-1]
     freq (    5) =       7.065986 [THz] =     235.695928 [cm-1]
     freq (    6) =       7.423360 [THz] =     247.616620 [cm-1]
 **************************************************************************

     Mode symmetry, S_4 (-4)    point group:

     freq (   1-   1) =         90.9  [cm-1]   --> B    W_3           
     freq (   2-   2) =        102.4  [cm-1]   --> E    W_4           
     freq (   3-   3) =        184.9  [cm-1]   --> A    W_1           
     freq (   4-   4) =        193.1  [cm-1]   --> E*   W_2           
     freq (   5-   5) =        235.7  [cm-1]   --> E    W_4           
     freq (   6-   6) =        247.6  [cm-1]   --> B    W_3           

     init_run     :      1.10s CPU      1.14s WALL (       7 calls)
     electrons    :   1613.43s CPU   1637.27s WALL (       7 calls)

     Called by init_run:
     wfcinit      :      0.00s CPU      0.00s WALL (       7 calls)
     potinit      :      0.10s CPU      0.11s WALL (       7 calls)
     hinit0       :      0.11s CPU      0.12s WALL (       7 calls)

     Called by electrons:
     c_bands      :   1613.43s CPU   1637.27s WALL (       7 calls)
     v_of_rho     :      0.10s CPU      0.10s WALL (       8 calls)

     Called by c_bands:
     init_us_2    :     77.12s CPU     79.04s WALL (  775316 calls)
     init_us_2:cp :     76.27s CPU     78.23s WALL (  775316 calls)
     cegterg      :   1522.33s CPU   1543.59s WALL (   28898 calls)

     Called by *egterg:
     cdiaghg      :    106.26s CPU    107.77s WALL (  502494 calls)
     h_psi        :  23478.50s CPU  23895.53s WALL (10634170 calls)
     g_psi        :      5.68s CPU      5.76s WALL (  476058 calls)

     Called by h_psi:
     h_psi:calbec :   1916.33s CPU   1949.05s WALL (10634170 calls)
     vloc_psi     :  19711.20s CPU  20064.36s WALL (10634170 calls)
     add_vuspsi   :   1793.50s CPU   1824.38s WALL (10634170 calls)

     General routines
     calbec       :   3817.53s CPU   3883.12s WALL (21193094 calls)
     fft          :      3.30s CPU      3.48s WALL (    4560 calls)
     ffts         :     20.84s CPU     21.75s WALL (   82417 calls)
     fftw         :  20798.31s CPU  21181.13s WALL (******** calls)
     interpolate  :      0.46s CPU      0.56s WALL (     697 calls)
     davcio       :     96.38s CPU    110.79s WALL ( 3185712 calls)

     Parallel routines

     PHONON       :      8h27m CPU      8h36m WALL

     INITIALIZATION: 
     phq_setup    :      0.20s CPU      0.22s WALL (       8 calls)
     phq_init     :     40.57s CPU     41.44s WALL (       8 calls)

     phq_init     :     40.57s CPU     41.44s WALL (       8 calls)
     init_vloc    :      0.04s CPU      0.04s WALL (       8 calls)
     init_us_1    :      0.07s CPU      0.09s WALL (       8 calls)
     init_us_2    :     77.12s CPU     79.04s WALL (  775316 calls)

     DYNAMICAL MATRIX:
     dynmat0      :     27.61s CPU     28.09s WALL (       8 calls)
     phqscf       :  28524.20s CPU  29056.54s WALL (       8 calls)
     dynmatrix    :      0.01s CPU      0.02s WALL (       8 calls)

     phqscf       :  28524.20s CPU  29056.54s WALL (       8 calls)
     solve_linter :  28447.78s CPU  28978.41s WALL (      38 calls)
     drhodv       :     76.32s CPU     77.97s WALL (      38 calls)

     dynmat0      :     27.61s CPU     28.09s WALL (       8 calls)
     dynmat_us    :     27.59s CPU     28.07s WALL (       8 calls)
     d2ionq       :      0.02s CPU      0.02s WALL (       8 calls)

     dynmat_us    :     27.59s CPU     28.07s WALL (       8 calls)

     phqscf       :  28524.20s CPU  29056.54s WALL (       8 calls)
     solve_linter :  28447.78s CPU  28978.41s WALL (      38 calls)

     solve_linter :  28447.78s CPU  28978.41s WALL (      38 calls)
     dvqpsi_us    :    227.68s CPU    235.83s WALL (   81492 calls)
     sth_kernel   :  28369.01s CPU  28893.19s WALL (     276 calls)
     apply_dpot_b :   1008.70s CPU   1036.14s WALL (  522792 calls)
     ortho        :     66.74s CPU     68.65s WALL (  604284 calls)
     cgsolve      :  25952.20s CPU  26411.17s WALL (  604284 calls)
     incdrhoscf   :   1212.65s CPU   1233.57s WALL (  603738 calls)
     dv_of_drho   :      4.05s CPU      4.23s WALL (     341 calls)
     mix_pot      :      0.65s CPU      1.03s WALL (     276 calls)
     psymdvscf    :     16.36s CPU     16.79s WALL (     270 calls)

     dvqpsi_us    :    227.68s CPU    235.83s WALL (   81492 calls)
     dvqpsi_us_on :     48.97s CPU     50.38s WALL (   81492 calls)

     cgsolve      :  25952.20s CPU  26411.17s WALL (  604284 calls)
     ch_psi       :  25333.55s CPU  25782.00s WALL (10102778 calls)

     ch_psi       :  25333.55s CPU  25782.00s WALL (10102778 calls)
     h_psi        :  23478.50s CPU  23895.53s WALL (10634170 calls)
     last         :   2971.22s CPU   3019.89s WALL (10102778 calls)

     h_psi        :  23478.50s CPU  23895.53s WALL (10634170 calls)
     add_vuspsi   :   1793.50s CPU   1824.38s WALL (10634170 calls)

     incdrhoscf   :   1212.65s CPU   1233.57s WALL (  603738 calls)


      General routines
     calbec       :   3817.53s CPU   3883.12s WALL (21193094 calls)
     fft          :      3.30s CPU      3.48s WALL (    4560 calls)
     ffts         :     20.84s CPU     21.75s WALL (   82417 calls)
     fftw         :  20798.31s CPU  21181.13s WALL (******** calls)
     davcio       :     96.38s CPU    110.79s WALL ( 3185712 calls)
     write_rec    :      0.19s CPU      0.32s WALL (     314 calls)


     PHONON       :      8h27m CPU      8h36m WALL


   This run was terminated on:   0:57:43   4Jun2024            

=------------------------------------------------------------------------------=
   JOB DONE.
=------------------------------------------------------------------------------=
