
     Program Q2R v.7.1 starts on  4Jun2024 at  0:57:44 

     This program is part of the open-source Quantum ESPRESSO suite
     for quantum simulation of materials; please cite
         "P. Giannozzi et al., J. Phys.:Condens. Matter 21 395502 (2009);
         "P. Giannozzi et al., J. Phys.:Condens. Matter 29 465901 (2017);
         "P. Giannozzi et al., J. Chem. Phys. 152 154105 (2020);
          URL http://www.quantum-espresso.org", 
     in publications or presentations arising from this work. More details at
     http://www.quantum-espresso.org/quote

     Parallel version (MPI & OpenMP), running on      12 processor cores
     Number of MPI processes:                12
     Threads/MPI process:                     1

     MPI processes distributed on     1 nodes
     R & G space division:  proc/nbgrp/npool/nimage =      12
     238150 MiB available memory on the printing compute node when the environment starts


     reading grid info from file GaAs.dyn0    
  reading force constants from file GaAs.dyn1
 macroscopic fields = T
  15.41169   0.00000   0.00000
   0.00000  15.41169  -0.00000
   0.00000   0.00000  15.41169
  na=            1
   2.20323  -0.00000  -0.00000
  -0.00000   2.20323  -0.00000
  -0.00000  -0.00000   2.20323
  na=            2
  -2.20888  -0.00000   0.00000
   0.00000  -2.20888   0.00000
   0.00000   0.00000  -2.20888
  nqs=            1
 q=   0.00000000  0.00000000  0.00000000
  reading force constants from file GaAs.dyn2
  nqs=            8
 q=  -0.25000000  0.25000000 -0.25000000
 q=   0.25000000 -0.25000000  0.25000000
 q=   0.25000000 -0.25000000 -0.25000000
 q=  -0.25000000  0.25000000  0.25000000
 q=  -0.25000000 -0.25000000  0.25000000
 q=   0.25000000  0.25000000 -0.25000000
 q=   0.25000000  0.25000000  0.25000000
 q=  -0.25000000 -0.25000000 -0.25000000
  reading force constants from file GaAs.dyn3
  nqs=            4
 q=   0.50000000 -0.50000000  0.50000000
 q=  -0.50000000  0.50000000  0.50000000
 q=   0.50000000  0.50000000 -0.50000000
 q=  -0.50000000 -0.50000000 -0.50000000
  reading force constants from file GaAs.dyn4
  nqs=            6
 q=   0.00000000  0.50000000  0.00000000
 q=  -0.50000000  0.00000000  0.00000000
 q=   0.00000000 -0.50000000  0.00000000
 q=   0.00000000  0.00000000  0.50000000
 q=   0.00000000  0.00000000 -0.50000000
 q=   0.50000000  0.00000000  0.00000000
  reading force constants from file GaAs.dyn5
  nqs=           24
 q=   0.75000000 -0.25000000  0.75000000
 q=  -0.75000000  0.25000000 -0.75000000
 q=  -0.75000000 -0.25000000 -0.75000000
 q=   0.75000000  0.25000000  0.75000000
 q=   0.25000000 -0.75000000  0.75000000
 q=  -0.25000000  0.75000000 -0.75000000
 q=  -0.75000000  0.25000000  0.75000000
 q=   0.75000000 -0.25000000 -0.75000000
 q=   0.75000000  0.25000000 -0.75000000
 q=  -0.75000000 -0.25000000  0.75000000
 q=   0.75000000  0.75000000 -0.25000000
 q=  -0.75000000 -0.75000000  0.25000000
 q=  -0.75000000 -0.75000000 -0.25000000
 q=   0.75000000  0.75000000  0.25000000
 q=  -0.75000000  0.75000000  0.25000000
 q=   0.75000000 -0.75000000 -0.25000000
 q=  -0.25000000  0.75000000  0.75000000
 q=   0.25000000 -0.75000000 -0.75000000
 q=   0.25000000  0.75000000 -0.75000000
 q=  -0.25000000 -0.75000000  0.75000000
 q=  -0.25000000 -0.75000000 -0.75000000
 q=   0.25000000  0.75000000  0.75000000
 q=   0.75000000 -0.75000000  0.25000000
 q=  -0.75000000  0.75000000 -0.25000000
  reading force constants from file GaAs.dyn6
  nqs=           12
 q=   0.50000000  0.00000000  0.50000000
 q=  -0.50000000  0.00000000 -0.50000000
 q=   0.00000000 -0.50000000  0.50000000
 q=  -0.50000000  0.00000000  0.50000000
 q=   0.50000000  0.00000000 -0.50000000
 q=   0.50000000  0.50000000  0.00000000
 q=  -0.50000000 -0.50000000  0.00000000
 q=  -0.50000000  0.50000000  0.00000000
 q=   0.00000000  0.50000000  0.50000000
 q=   0.00000000  0.50000000 -0.50000000
 q=   0.00000000 -0.50000000 -0.50000000
 q=   0.50000000 -0.50000000  0.00000000
  reading force constants from file GaAs.dyn7
  nqs=            3
 q=   0.00000000 -1.00000000  0.00000000
 q=   0.00000000  0.00000000 -1.00000000
 q=  -1.00000000  0.00000000  0.00000000
  reading force constants from file GaAs.dyn8
  nqs=            6
 q=  -0.50000000 -1.00000000  0.00000000
 q=   0.00000000  1.00000000 -0.50000000
 q=   0.00000000  1.00000000  0.50000000
 q=   0.50000000  1.00000000  0.00000000
 q=   0.00000000 -0.50000000 -1.00000000
 q=   0.00000000  0.50000000 -1.00000000

      q-space grid ok, #points =   64

      fft-check success (sum of imaginary terms < 10^-12)

     Q2R          :      0.03s CPU      0.03s WALL


   This run was terminated on:   0:57:44   4Jun2024            

=------------------------------------------------------------------------------=
   JOB DONE.
=------------------------------------------------------------------------------=
