
     Program PHONON v.7.1 starts on  2May2024 at 16:55:56 

     This program is part of the open-source Quantum ESPRESSO suite
     for quantum simulation of materials; please cite
         "P. Giannozzi et al., J. Phys.:Condens. Matter 21 395502 (2009);
         "P. Giannozzi et al., J. Phys.:Condens. Matter 29 465901 (2017);
         "P. Giannozzi et al., J. Chem. Phys. 152 154105 (2020);
          URL http://www.quantum-espresso.org", 
     in publications or presentations arising from this work. More details at
     http://www.quantum-espresso.org/quote

     Parallel version (MPI & OpenMP), running on      12 processor cores
     Number of MPI processes:                12
     Threads/MPI process:                     1

     MPI processes distributed on     1 nodes
     R & G space division:  proc/nbgrp/npool/nimage =      12
     222676 MiB available memory on the printing compute node when the environment starts

     Reading input from C.ph.in

     Reading xml data from directory:

     /home/bonacc_m/Documents/phonons/diamond/TMP_diamond/diamond.save/

     IMPORTANT: XC functional enforced from input :
     Exchange-correlation= PZ
                           (   1   1   0   0   0   0   0)
     Any further DFT definition will be discarded
     Please, verify this is what you really want


     Parallelization info
     --------------------
     sticks:   dense  smooth     PW     G-vecs:    dense   smooth      PW
     Min          55      55     17                  932      932     173
     Max          56      56     18                  935      935     175
     Sum         661     661    211                11191    11191    2085

     Using Slab Decomposition

     Reading collected, re-writing distributed wavefunctions


     Dynamical matrices for ( 4, 4, 4)  uniform grid of q-points
     (   8 q-points):
       N         xq(1)         xq(2)         xq(3) 
       1   0.000000000   0.000000000   0.000000000
       2  -0.250000000   0.250000000  -0.250000000
       3   0.500000000  -0.500000000   0.500000000
       4   0.000000000   0.500000000   0.000000000
       5   0.750000000  -0.250000000   0.750000000
       6   0.500000000   0.000000000   0.500000000
       7   0.000000000  -1.000000000   0.000000000
       8  -0.500000000  -1.000000000   0.000000000

     Calculation of q =    0.0000000   0.0000000   0.0000000

     diamond                                                                    

     bravais-lattice index     =            2
     lattice parameter (alat)  =       6.6000  a.u.
     unit-cell volume          =      71.8740 (a.u.)^3
     number of atoms/cell      =            2
     number of atomic types    =            1
     kinetic-energy cut-off    =     110.0000  Ry
     charge density cut-off    =     440.0000  Ry
     convergence threshold     =      1.0E-14
     beta                      =       0.7000
     number of iterations used =            4
     Exchange-correlation= PZ
                           (   1   1   0   0   0   0   0)


     celldm(1)=    6.60000  celldm(2)=    0.00000  celldm(3)=    0.00000
     celldm(4)=    0.00000  celldm(5)=    0.00000  celldm(6)=    0.00000

     crystal axes: (cart. coord. in units of alat)
               a(1) = ( -0.5000  0.0000  0.5000 )  
               a(2) = (  0.0000  0.5000  0.5000 )  
               a(3) = ( -0.5000  0.5000  0.0000 )  

     reciprocal axes: (cart. coord. in units 2 pi/alat)
               b(1) = ( -1.0000 -1.0000  1.0000 )  
               b(2) = (  1.0000  1.0000  1.0000 )  
               b(3) = ( -1.0000  1.0000 -1.0000 )  


     Atoms inside the unit cell: 

     Cartesian axes

     site n.  atom      mass           positions (alat units)
        1     C   12.0110   tau(    1) = (    0.00000    0.00000    0.00000  )
        2     C   12.0110   tau(    2) = (    0.25000    0.25000    0.25000  )

     Computing dynamical matrix for 
                    q = (   0.0000000   0.0000000   0.0000000 )

     49 Sym.Ops. (with q -> -q+G )


     G cutoff =  485.4906  (    933 G-vectors)     FFT grid: ( 32, 32, 32)
     number of k points=    60

     PseudoPot. # 1 for C  read from file:
     ./C.pz-vbc.UPF
     MD5 check sum: f697e42eaa1e52b77fcf7925dd36a1dd
     Pseudo is Norm-conserving, Zval =  4.0
     Generated by new atomic code, or converted to UPF format
     Using radial grid of  269 points,  1 beta functions with: 
                l(1) =   0

     Mode symmetry, O_h (m-3m)  point group:


     Electric field:
     Dielectric constant
     Born effective charges in two ways 


     Atomic displacements:
     There are    2 irreducible representations

     Representation     1      3 modes -  To be done

     Representation     2      3 modes -  To be done



     Alpha used in Ewald sum =   2.8000
     PHONON       :      0.14s CPU      0.15s WALL


     Electric Fields Calculation

      iter #   1 total cpu time :     2.3 secs   av.it.:   5.4
      thresh= 1.000E-02 alpha_mix =  0.700 |ddv_scf|^2 =  1.077E-08

      iter #   2 total cpu time :     3.2 secs   av.it.:  10.1
      thresh= 1.038E-05 alpha_mix =  0.700 |ddv_scf|^2 =  1.045E-10

      iter #   3 total cpu time :     4.2 secs   av.it.:  10.2
      thresh= 1.022E-06 alpha_mix =  0.700 |ddv_scf|^2 =  5.376E-12

      iter #   4 total cpu time :     5.2 secs   av.it.:  10.4
      thresh= 2.319E-07 alpha_mix =  0.700 |ddv_scf|^2 =  7.933E-15

     End of electric fields calculation

          Dielectric constant in cartesian axis 

          (       5.685455892      -0.000000000      -0.000000000 )
          (      -0.000000000       5.685455892       0.000000000 )
          (      -0.000000000       0.000000000       5.685455892 )

          Effective charges (d Force / dE) in cartesian axis without acoustic sum rule applied (asr)

           atom      1   C  Mean Z*:        0.00031
      Ex  (        0.00031       -0.00000       -0.00000 )
      Ey  (       -0.00000        0.00031        0.00000 )
      Ez  (       -0.00000        0.00000        0.00031 )
           atom      2   C  Mean Z*:        0.00031
      Ex  (        0.00031       -0.00000       -0.00000 )
      Ey  (       -0.00000        0.00031        0.00000 )
      Ez  (       -0.00000        0.00000        0.00031 )

          Effective charges Sum: Mean:        0.00063
              0.00063       -0.00000       -0.00000
             -0.00000        0.00063        0.00000
             -0.00000        0.00000        0.00063

          Effective charges (d Force / dE) in cartesian axis with asr applied: 
           atom      1   C  Mean Z*:       -0.00000
      E*x (       -0.00000        0.00000       -0.00000 )
      E*y (        0.00000       -0.00000        0.00000 )
      E*z (        0.00000        0.00000       -0.00000 )
           atom      2   C  Mean Z*:        0.00000
      E*x (        0.00000       -0.00000        0.00000 )
      E*y (       -0.00000        0.00000       -0.00000 )
      E*z (        0.00000       -0.00000        0.00000 )


     Representation #   1 modes #   1   2   3

     Self-consistent Calculation

      iter #   1 total cpu time :     6.1 secs   av.it.:   6.2
      thresh= 1.000E-02 alpha_mix =  0.700 |ddv_scf|^2 =  1.956E-07

      iter #   2 total cpu time :     7.2 secs   av.it.:  10.2
      thresh= 4.423E-05 alpha_mix =  0.700 |ddv_scf|^2 =  5.441E-10

      iter #   3 total cpu time :     8.3 secs   av.it.:  10.1
      thresh= 2.333E-06 alpha_mix =  0.700 |ddv_scf|^2 =  1.226E-11

      iter #   4 total cpu time :     9.1 secs   av.it.:   9.4
      thresh= 3.502E-07 alpha_mix =  0.700 |ddv_scf|^2 =  1.017E-14

      iter #   5 total cpu time :    10.2 secs   av.it.:  10.3
      thresh= 1.008E-08 alpha_mix =  0.700 |ddv_scf|^2 =  1.210E-17

     End of self-consistent calculation

     Convergence has been achieved 


     Representation #   2 modes #   4   5   6

     Self-consistent Calculation

      iter #   1 total cpu time :    10.9 secs   av.it.:   6.3
      thresh= 1.000E-02 alpha_mix =  0.700 |ddv_scf|^2 =  1.257E-07

      iter #   2 total cpu time :    11.9 secs   av.it.:  10.4
      thresh= 3.545E-05 alpha_mix =  0.700 |ddv_scf|^2 =  1.880E-10

      iter #   3 total cpu time :    12.9 secs   av.it.:   9.5
      thresh= 1.371E-06 alpha_mix =  0.700 |ddv_scf|^2 =  1.645E-11

      iter #   4 total cpu time :    13.8 secs   av.it.:   9.7
      thresh= 4.056E-07 alpha_mix =  0.700 |ddv_scf|^2 =  9.080E-15

     End of self-consistent calculation

     Convergence has been achieved 

     Number of q in the star =    1
     List of q in the star:
          1   0.000000000   0.000000000   0.000000000

          Dielectric constant in cartesian axis 

          (       5.685455892      -0.000000000      -0.000000000 )
          (      -0.000000000       5.685455892       0.000000000 )
          (      -0.000000000       0.000000000       5.685455892 )

          Effective charges (d Force / dE) in cartesian axis without acoustic sum rule applied (asr)

           atom      1   C  Mean Z*:        0.00031
      Ex  (        0.00031       -0.00000       -0.00000 )
      Ey  (       -0.00000        0.00031        0.00000 )
      Ez  (       -0.00000        0.00000        0.00031 )
           atom      2   C  Mean Z*:        0.00031
      Ex  (        0.00031       -0.00000       -0.00000 )
      Ey  (       -0.00000        0.00031        0.00000 )
      Ez  (       -0.00000        0.00000        0.00031 )

          Effective charges Sum: Mean:        0.00063
              0.00063       -0.00000       -0.00000
             -0.00000        0.00063        0.00000
             -0.00000        0.00000        0.00063

          Effective charges (d Force / dE) in cartesian axis with asr applied: 
           atom      1   C  Mean Z*:       -0.00000
      E*x (       -0.00000        0.00000       -0.00000 )
      E*y (        0.00000       -0.00000        0.00000 )
      E*z (        0.00000        0.00000       -0.00000 )
           atom      2   C  Mean Z*:        0.00000
      E*x (        0.00000       -0.00000        0.00000 )
      E*y (       -0.00000        0.00000       -0.00000 )
      E*z (        0.00000       -0.00000        0.00000 )

          Effective charges (d P / du) in cartesian axis 

           atom      1   C  
      Px  (        0.00056       -0.00000       -0.00000 )
      Py  (        0.00000        0.00056       -0.00000 )
      Pz  (       -0.00000       -0.00000        0.00056 )
           atom      2   C  
      Px  (        0.00056       -0.00000       -0.00000 )
      Py  (       -0.00000        0.00056        0.00000 )
      Pz  (        0.00000       -0.00000        0.00056 )

     Diagonalizing the dynamical matrix

     q = (    0.000000000   0.000000000   0.000000000 ) 

 **************************************************************************
     freq (    1) =       0.715965 [THz] =      23.882037 [cm-1]
     freq (    2) =       0.715965 [THz] =      23.882037 [cm-1]
     freq (    3) =       0.715965 [THz] =      23.882037 [cm-1]
     freq (    4) =      41.163460 [THz] =    1373.065243 [cm-1]
     freq (    5) =      41.163460 [THz] =    1373.065243 [cm-1]
     freq (    6) =      41.163460 [THz] =    1373.065243 [cm-1]
 **************************************************************************

     Mode symmetry, O_h (m-3m)  point group:

     freq (   1-   3) =         23.9  [cm-1]   --> T_1u G_15  G_4- I  
     freq (   4-   6) =       1373.1  [cm-1]   --> T_2g G_25' G_5+ R  

     Calculation of q =   -0.2500000   0.2500000  -0.2500000
     Subspace diagonalization in iterative solution of the eigenvalue problem:
     a serial algorithm will be used


     Parallelization info
     --------------------
     sticks:   dense  smooth     PW     G-vecs:    dense   smooth      PW
     Min          55      55     18                  932      932     185
     Max          56      56     19                  935      935     187
     Sum         661     661    223                11191    11191    2229

     Using Slab Decomposition


     Title: 
     diamond                                                                    


     bravais-lattice index     =            2
     lattice parameter (alat)  =       6.6000  a.u.
     unit-cell volume          =      71.8740 (a.u.)^3
     number of atoms/cell      =            2
     number of atomic types    =            1
     number of electrons       =         8.00
     number of Kohn-Sham states=            4
     kinetic-energy cutoff     =     110.0000  Ry
     charge density cutoff     =     440.0000  Ry
     Exchange-correlation= PZ
                           (   1   1   0   0   0   0   0)

     celldm(1)=   6.600000  celldm(2)=   0.000000  celldm(3)=   0.000000
     celldm(4)=   0.000000  celldm(5)=   0.000000  celldm(6)=   0.000000

     crystal axes: (cart. coord. in units of alat)
               a(1) = (  -0.500000   0.000000   0.500000 )  
               a(2) = (   0.000000   0.500000   0.500000 )  
               a(3) = (  -0.500000   0.500000   0.000000 )  

     reciprocal axes: (cart. coord. in units 2 pi/alat)
               b(1) = ( -1.000000 -1.000000  1.000000 )  
               b(2) = (  1.000000  1.000000  1.000000 )  
               b(3) = ( -1.000000  1.000000 -1.000000 )  


     PseudoPot. # 1 for C  read from file:
     ./C.pz-vbc.UPF
     MD5 check sum: f697e42eaa1e52b77fcf7925dd36a1dd
     Pseudo is Norm-conserving, Zval =  4.0
     Generated by new atomic code, or converted to UPF format
     Using radial grid of  269 points,  1 beta functions with: 
                l(1) =   0

     atomic species   valence    mass     pseudopotential
        C              4.00    12.01100     C ( 1.00)

     48 Sym. Ops., with inversion, found



   Cartesian axes

     site n.     atom                  positions (alat units)
         1           C   tau(   1) = (   0.0000000   0.0000000   0.0000000  )
         2           C   tau(   2) = (   0.2500000   0.2500000   0.2500000  )

     number of k points=   816

     Number of k-points >= 100: set verbosity='high' to print them.

     Dense  grid:    11191 G-vectors     FFT dimensions: (  32,  32,  32)

     Estimated max dynamical RAM per process >       0.43 MB

     Estimated total dynamical RAM >       5.18 MB

     The potential is recalculated from file :
     /home/bonacc_m/Documents/phonons/diamond/TMP_diamond/_ph0/diamond.save/charge-density

     Starting wfcs are    8 atomic wfcs

     Band Structure Calculation
     Davidson diagonalization with overlap

     ethr =  1.25E-10,  avg # of iterations =  9.4

     total cpu time spent up to now is        4.3 secs

     End of band structure calculation

     Number of k-points >= 100: set verbosity='high' to print the bands.

     highest occupied level (ev):    14.0967

     Writing config to output data dir /home/bonacc_m/Documents/phonons/diamond/TMP_diamond/_ph0/diamond.save/

     diamond                                                                    

     bravais-lattice index     =            2
     lattice parameter (alat)  =       6.6000  a.u.
     unit-cell volume          =      71.8740 (a.u.)^3
     number of atoms/cell      =            2
     number of atomic types    =            1
     kinetic-energy cut-off    =     110.0000  Ry
     charge density cut-off    =     440.0000  Ry
     convergence threshold     =      1.0E-14
     beta                      =       0.7000
     number of iterations used =            4
     Exchange-correlation= PZ
                           (   1   1   0   0   0   0   0)


     celldm(1)=    6.60000  celldm(2)=    0.00000  celldm(3)=    0.00000
     celldm(4)=    0.00000  celldm(5)=    0.00000  celldm(6)=    0.00000

     crystal axes: (cart. coord. in units of alat)
               a(1) = ( -0.5000  0.0000  0.5000 )  
               a(2) = (  0.0000  0.5000  0.5000 )  
               a(3) = ( -0.5000  0.5000  0.0000 )  

     reciprocal axes: (cart. coord. in units 2 pi/alat)
               b(1) = ( -1.0000 -1.0000  1.0000 )  
               b(2) = (  1.0000  1.0000  1.0000 )  
               b(3) = ( -1.0000  1.0000 -1.0000 )  


     Atoms inside the unit cell: 

     Cartesian axes

     site n.  atom      mass           positions (alat units)
        1     C   12.0110   tau(    1) = (    0.00000    0.00000    0.00000  )
        2     C   12.0110   tau(    2) = (    0.25000    0.25000    0.25000  )

     Computing dynamical matrix for 
                    q = (  -0.2500000   0.2500000  -0.2500000 )

      6 Sym.Ops. (no q -> -q+G )


     G cutoff =  485.4906  (    933 G-vectors)     FFT grid: ( 32, 32, 32)
     number of k points=   816

     PseudoPot. # 1 for C  read from file:
     ./C.pz-vbc.UPF
     MD5 check sum: f697e42eaa1e52b77fcf7925dd36a1dd
     Pseudo is Norm-conserving, Zval =  4.0
     Generated by new atomic code, or converted to UPF format
     Using radial grid of  269 points,  1 beta functions with: 
                l(1) =   0

     Mode symmetry, C_3v (3m)   point group:


     Atomic displacements:
     There are    4 irreducible representations

     Representation     1      1 modes -  To be done

     Representation     2      1 modes -  To be done

     Representation     3      2 modes -  To be done

     Representation     4      2 modes -  To be done



     Alpha used in Ewald sum =   2.8000
     PHONON       :     17.22s CPU     18.22s WALL



     Representation #   1 mode #   1

     Self-consistent Calculation

      iter #   1 total cpu time :    19.8 secs   av.it.:   6.8
      thresh= 1.000E-02 alpha_mix =  0.700 |ddv_scf|^2 =  9.906E-04

      iter #   2 total cpu time :    21.5 secs   av.it.:   8.2
      thresh= 3.147E-03 alpha_mix =  0.700 |ddv_scf|^2 =  3.678E-03

      iter #   3 total cpu time :    23.1 secs   av.it.:   7.0
      thresh= 6.065E-03 alpha_mix =  0.700 |ddv_scf|^2 =  9.590E-08

      iter #   4 total cpu time :    25.0 secs   av.it.:   9.2
      thresh= 3.097E-05 alpha_mix =  0.700 |ddv_scf|^2 =  1.268E-08

      iter #   5 total cpu time :    26.9 secs   av.it.:   8.8
      thresh= 1.126E-05 alpha_mix =  0.700 |ddv_scf|^2 =  6.030E-11

      iter #   6 total cpu time :    28.9 secs   av.it.:   9.1
      thresh= 7.765E-07 alpha_mix =  0.700 |ddv_scf|^2 =  3.514E-12

      iter #   7 total cpu time :    30.8 secs   av.it.:   8.6
      thresh= 1.874E-07 alpha_mix =  0.700 |ddv_scf|^2 =  1.674E-12

      iter #   8 total cpu time :    32.5 secs   av.it.:   7.5
      thresh= 1.294E-07 alpha_mix =  0.700 |ddv_scf|^2 =  3.634E-13

      iter #   9 total cpu time :    34.2 secs   av.it.:   8.1
      thresh= 6.028E-08 alpha_mix =  0.700 |ddv_scf|^2 =  2.355E-13

      iter #  10 total cpu time :    35.8 secs   av.it.:   7.5
      thresh= 4.853E-08 alpha_mix =  0.700 |ddv_scf|^2 =  3.748E-15

     End of self-consistent calculation

     Convergence has been achieved 


     Representation #   2 mode #   2

     Self-consistent Calculation

      iter #   1 total cpu time :    37.4 secs   av.it.:   6.8
      thresh= 1.000E-02 alpha_mix =  0.700 |ddv_scf|^2 =  9.906E-04

      iter #   2 total cpu time :    39.4 secs   av.it.:   8.2
      thresh= 3.147E-03 alpha_mix =  0.700 |ddv_scf|^2 =  3.678E-03

      iter #   3 total cpu time :    40.9 secs   av.it.:   7.0
      thresh= 6.065E-03 alpha_mix =  0.700 |ddv_scf|^2 =  9.590E-08

      iter #   4 total cpu time :    42.8 secs   av.it.:   9.2
      thresh= 3.097E-05 alpha_mix =  0.700 |ddv_scf|^2 =  1.268E-08

      iter #   5 total cpu time :    44.5 secs   av.it.:   8.8
      thresh= 1.126E-05 alpha_mix =  0.700 |ddv_scf|^2 =  6.030E-11

      iter #   6 total cpu time :    46.4 secs   av.it.:   9.1
      thresh= 7.765E-07 alpha_mix =  0.700 |ddv_scf|^2 =  3.514E-12

      iter #   7 total cpu time :    48.4 secs   av.it.:   8.6
      thresh= 1.874E-07 alpha_mix =  0.700 |ddv_scf|^2 =  1.674E-12

      iter #   8 total cpu time :    50.1 secs   av.it.:   7.5
      thresh= 1.294E-07 alpha_mix =  0.700 |ddv_scf|^2 =  3.634E-13

      iter #   9 total cpu time :    51.8 secs   av.it.:   8.1
      thresh= 6.028E-08 alpha_mix =  0.700 |ddv_scf|^2 =  2.355E-13

      iter #  10 total cpu time :    53.4 secs   av.it.:   7.5
      thresh= 4.853E-08 alpha_mix =  0.700 |ddv_scf|^2 =  3.748E-15

     End of self-consistent calculation

     Convergence has been achieved 


     Representation #   3 modes #   3   4

     Self-consistent Calculation

      iter #   1 total cpu time :    56.3 secs   av.it.:   6.3
      thresh= 1.000E-02 alpha_mix =  0.700 |ddv_scf|^2 =  4.508E-07

      iter #   2 total cpu time :    60.3 secs   av.it.:  10.1
      thresh= 6.714E-05 alpha_mix =  0.700 |ddv_scf|^2 =  7.807E-10

      iter #   3 total cpu time :    64.3 secs   av.it.:   9.9
      thresh= 2.794E-06 alpha_mix =  0.700 |ddv_scf|^2 =  3.919E-11

      iter #   4 total cpu time :    68.2 secs   av.it.:   9.3
      thresh= 6.260E-07 alpha_mix =  0.700 |ddv_scf|^2 =  1.089E-12

      iter #   5 total cpu time :    72.0 secs   av.it.:   9.2
      thresh= 1.043E-07 alpha_mix =  0.700 |ddv_scf|^2 =  2.312E-15

     End of self-consistent calculation

     Convergence has been achieved 


     Representation #   4 modes #   5   6

     Self-consistent Calculation

      iter #   1 total cpu time :    75.0 secs   av.it.:   6.3
      thresh= 1.000E-02 alpha_mix =  0.700 |ddv_scf|^2 =  4.508E-07

      iter #   2 total cpu time :    79.1 secs   av.it.:  10.0
      thresh= 6.714E-05 alpha_mix =  0.700 |ddv_scf|^2 =  7.803E-10

      iter #   3 total cpu time :    83.1 secs   av.it.:   9.8
      thresh= 2.793E-06 alpha_mix =  0.700 |ddv_scf|^2 =  3.919E-11

      iter #   4 total cpu time :    86.8 secs   av.it.:   9.2
      thresh= 6.260E-07 alpha_mix =  0.700 |ddv_scf|^2 =  1.088E-12

      iter #   5 total cpu time :    90.6 secs   av.it.:   9.1
      thresh= 1.043E-07 alpha_mix =  0.700 |ddv_scf|^2 =  2.312E-15

     End of self-consistent calculation

     Convergence has been achieved 

     Number of q in the star =    8
     List of q in the star:
          1  -0.250000000   0.250000000  -0.250000000
          2   0.250000000  -0.250000000  -0.250000000
          3   0.250000000  -0.250000000   0.250000000
          4   0.250000000   0.250000000   0.250000000
          5  -0.250000000  -0.250000000  -0.250000000
          6  -0.250000000  -0.250000000   0.250000000
          7  -0.250000000   0.250000000   0.250000000
          8   0.250000000   0.250000000  -0.250000000

     Diagonalizing the dynamical matrix

     q = (   -0.250000000   0.250000000  -0.250000000 ) 

 **************************************************************************
     freq (    1) =      12.612427 [THz] =     420.705266 [cm-1]
     freq (    2) =      12.612427 [THz] =     420.705266 [cm-1]
     freq (    3) =      21.994840 [THz] =     733.668897 [cm-1]
     freq (    4) =      39.596700 [THz] =    1320.803756 [cm-1]
     freq (    5) =      39.596700 [THz] =    1320.803756 [cm-1]
     freq (    6) =      41.292355 [THz] =    1377.364714 [cm-1]
 **************************************************************************

     Mode symmetry, C_3v (3m)   point group:

     freq (   1-   2) =        420.7  [cm-1]   --> E    L_3           
     freq (   3-   3) =        733.7  [cm-1]   --> A_1  L_1           
     freq (   4-   5) =       1320.8  [cm-1]   --> E    L_3           
     freq (   6-   6) =       1377.4  [cm-1]   --> A_1  L_1           

     Calculation of q =    0.5000000  -0.5000000   0.5000000

     Parallelization info
     --------------------
     sticks:   dense  smooth     PW     G-vecs:    dense   smooth      PW
     Min          55      55     20                  932      932     201
     Max          56      56     21                  935      935     203
     Sum         661     661    241                11191    11191    2421

     Using Slab Decomposition


     Title: 
     diamond                                                                    


     bravais-lattice index     =            2
     lattice parameter (alat)  =       6.6000  a.u.
     unit-cell volume          =      71.8740 (a.u.)^3
     number of atoms/cell      =            2
     number of atomic types    =            1
     number of electrons       =         8.00
     number of Kohn-Sham states=            4
     kinetic-energy cutoff     =     110.0000  Ry
     charge density cutoff     =     440.0000  Ry
     Exchange-correlation= PZ
                           (   1   1   0   0   0   0   0)

     celldm(1)=   6.600000  celldm(2)=   0.000000  celldm(3)=   0.000000
     celldm(4)=   0.000000  celldm(5)=   0.000000  celldm(6)=   0.000000

     crystal axes: (cart. coord. in units of alat)
               a(1) = (  -0.500000   0.000000   0.500000 )  
               a(2) = (   0.000000   0.500000   0.500000 )  
               a(3) = (  -0.500000   0.500000   0.000000 )  

     reciprocal axes: (cart. coord. in units 2 pi/alat)
               b(1) = ( -1.000000 -1.000000  1.000000 )  
               b(2) = (  1.000000  1.000000  1.000000 )  
               b(3) = ( -1.000000  1.000000 -1.000000 )  


     PseudoPot. # 1 for C  read from file:
     ./C.pz-vbc.UPF
     MD5 check sum: f697e42eaa1e52b77fcf7925dd36a1dd
     Pseudo is Norm-conserving, Zval =  4.0
     Generated by new atomic code, or converted to UPF format
     Using radial grid of  269 points,  1 beta functions with: 
                l(1) =   0

     atomic species   valence    mass     pseudopotential
        C              4.00    12.01100     C ( 1.00)

     48 Sym. Ops., with inversion, found



   Cartesian axes

     site n.     atom                  positions (alat units)
         1           C   tau(   1) = (   0.0000000   0.0000000   0.0000000  )
         2           C   tau(   2) = (   0.2500000   0.2500000   0.2500000  )

     number of k points=   408

     Number of k-points >= 100: set verbosity='high' to print them.

     Dense  grid:    11191 G-vectors     FFT dimensions: (  32,  32,  32)

     Estimated max dynamical RAM per process >       0.43 MB

     Estimated total dynamical RAM >       5.18 MB

     The potential is recalculated from file :
     /home/bonacc_m/Documents/phonons/diamond/TMP_diamond/_ph0/diamond.save/charge-density

     Starting wfcs are    8 atomic wfcs

     Band Structure Calculation
     Davidson diagonalization with overlap

     ethr =  1.25E-10,  avg # of iterations =  9.4

     total cpu time spent up to now is        6.6 secs

     End of band structure calculation

     Number of k-points >= 100: set verbosity='high' to print the bands.

     highest occupied level (ev):    14.0967

     Writing config to output data dir /home/bonacc_m/Documents/phonons/diamond/TMP_diamond/_ph0/diamond.save/

     diamond                                                                    

     bravais-lattice index     =            2
     lattice parameter (alat)  =       6.6000  a.u.
     unit-cell volume          =      71.8740 (a.u.)^3
     number of atoms/cell      =            2
     number of atomic types    =            1
     kinetic-energy cut-off    =     110.0000  Ry
     charge density cut-off    =     440.0000  Ry
     convergence threshold     =      1.0E-14
     beta                      =       0.7000
     number of iterations used =            4
     Exchange-correlation= PZ
                           (   1   1   0   0   0   0   0)


     celldm(1)=    6.60000  celldm(2)=    0.00000  celldm(3)=    0.00000
     celldm(4)=    0.00000  celldm(5)=    0.00000  celldm(6)=    0.00000

     crystal axes: (cart. coord. in units of alat)
               a(1) = ( -0.5000  0.0000  0.5000 )  
               a(2) = (  0.0000  0.5000  0.5000 )  
               a(3) = ( -0.5000  0.5000  0.0000 )  

     reciprocal axes: (cart. coord. in units 2 pi/alat)
               b(1) = ( -1.0000 -1.0000  1.0000 )  
               b(2) = (  1.0000  1.0000  1.0000 )  
               b(3) = ( -1.0000  1.0000 -1.0000 )  


     Atoms inside the unit cell: 

     Cartesian axes

     site n.  atom      mass           positions (alat units)
        1     C   12.0110   tau(    1) = (    0.00000    0.00000    0.00000  )
        2     C   12.0110   tau(    2) = (    0.25000    0.25000    0.25000  )

     Computing dynamical matrix for 
                    q = (   0.5000000  -0.5000000   0.5000000 )

     13 Sym.Ops. (with q -> -q+G )


     G cutoff =  485.4906  (    933 G-vectors)     FFT grid: ( 32, 32, 32)
     number of k points=   408

     PseudoPot. # 1 for C  read from file:
     ./C.pz-vbc.UPF
     MD5 check sum: f697e42eaa1e52b77fcf7925dd36a1dd
     Pseudo is Norm-conserving, Zval =  4.0
     Generated by new atomic code, or converted to UPF format
     Using radial grid of  269 points,  1 beta functions with: 
                l(1) =   0


     Atomic displacements:
     There are    4 irreducible representations

     Representation     1      1 modes -  To be done

     Representation     2      1 modes -  To be done

     Representation     3      2 modes -  To be done

     Representation     4      2 modes -  To be done



     Alpha used in Ewald sum =   2.8000
     PHONON       :   1m27.28s CPU   1m32.92s WALL



     Representation #   1 mode #   1

     Self-consistent Calculation

      iter #   1 total cpu time :    93.7 secs   av.it.:   6.1
      thresh= 1.000E-02 alpha_mix =  0.700 |ddv_scf|^2 =  2.021E-05

      iter #   2 total cpu time :    94.7 secs   av.it.:   8.6
      thresh= 4.495E-04 alpha_mix =  0.700 |ddv_scf|^2 =  7.889E-06

      iter #   3 total cpu time :    95.6 secs   av.it.:   8.2
      thresh= 2.809E-04 alpha_mix =  0.700 |ddv_scf|^2 =  1.301E-08

      iter #   4 total cpu time :    96.5 secs   av.it.:   8.1
      thresh= 1.140E-05 alpha_mix =  0.700 |ddv_scf|^2 =  1.882E-11

      iter #   5 total cpu time :    97.4 secs   av.it.:   8.2
      thresh= 4.338E-07 alpha_mix =  0.700 |ddv_scf|^2 =  5.531E-13

      iter #   6 total cpu time :    98.3 secs   av.it.:   8.1
      thresh= 7.437E-08 alpha_mix =  0.700 |ddv_scf|^2 =  4.742E-15

     End of self-consistent calculation

     Convergence has been achieved 


     Representation #   2 mode #   2

     Self-consistent Calculation

      iter #   1 total cpu time :    99.0 secs   av.it.:   6.9
      thresh= 1.000E-02 alpha_mix =  0.700 |ddv_scf|^2 =  1.994E-04

      iter #   2 total cpu time :   100.0 secs   av.it.:   8.9
      thresh= 1.412E-03 alpha_mix =  0.700 |ddv_scf|^2 =  1.891E-04

      iter #   3 total cpu time :   101.0 secs   av.it.:   8.2
      thresh= 1.375E-03 alpha_mix =  0.700 |ddv_scf|^2 =  2.604E-07

      iter #   4 total cpu time :   101.9 secs   av.it.:   8.7
      thresh= 5.103E-05 alpha_mix =  0.700 |ddv_scf|^2 =  1.985E-10

      iter #   5 total cpu time :   102.8 secs   av.it.:   8.6
      thresh= 1.409E-06 alpha_mix =  0.700 |ddv_scf|^2 =  1.030E-11

      iter #   6 total cpu time :   103.7 secs   av.it.:   8.4
      thresh= 3.209E-07 alpha_mix =  0.700 |ddv_scf|^2 =  9.685E-14

      iter #   7 total cpu time :   104.6 secs   av.it.:   8.8
      thresh= 3.112E-08 alpha_mix =  0.700 |ddv_scf|^2 =  1.475E-16

     End of self-consistent calculation

     Convergence has been achieved 


     Representation #   3 modes #   3   4

     Self-consistent Calculation

      iter #   1 total cpu time :   106.1 secs   av.it.:   6.2
      thresh= 1.000E-02 alpha_mix =  0.700 |ddv_scf|^2 =  9.255E-07

      iter #   2 total cpu time :   108.2 secs   av.it.:   9.8
      thresh= 9.621E-05 alpha_mix =  0.700 |ddv_scf|^2 =  1.830E-09

      iter #   3 total cpu time :   110.2 secs   av.it.:   9.7
      thresh= 4.277E-06 alpha_mix =  0.700 |ddv_scf|^2 =  4.658E-11

      iter #   4 total cpu time :   112.3 secs   av.it.:   9.2
      thresh= 6.825E-07 alpha_mix =  0.700 |ddv_scf|^2 =  1.510E-13

      iter #   5 total cpu time :   114.3 secs   av.it.:   9.7
      thresh= 3.886E-08 alpha_mix =  0.700 |ddv_scf|^2 =  5.292E-17

     End of self-consistent calculation

     Convergence has been achieved 


     Representation #   4 modes #   5   6

     Self-consistent Calculation

      iter #   1 total cpu time :   115.8 secs   av.it.:   6.2
      thresh= 1.000E-02 alpha_mix =  0.700 |ddv_scf|^2 =  1.403E-07

      iter #   2 total cpu time :   117.8 secs   av.it.:   9.9
      thresh= 3.746E-05 alpha_mix =  0.700 |ddv_scf|^2 =  6.474E-10

      iter #   3 total cpu time :   119.8 secs   av.it.:   9.7
      thresh= 2.544E-06 alpha_mix =  0.700 |ddv_scf|^2 =  3.007E-11

      iter #   4 total cpu time :   121.7 secs   av.it.:   9.2
      thresh= 5.483E-07 alpha_mix =  0.700 |ddv_scf|^2 =  4.930E-14

      iter #   5 total cpu time :   123.8 secs   av.it.:   9.8
      thresh= 2.220E-08 alpha_mix =  0.700 |ddv_scf|^2 =  8.775E-17

     End of self-consistent calculation

     Convergence has been achieved 

     Number of q in the star =    4
     List of q in the star:
          1   0.500000000  -0.500000000   0.500000000
          2   0.500000000   0.500000000   0.500000000
          3  -0.500000000   0.500000000   0.500000000
          4   0.500000000   0.500000000  -0.500000000

     Diagonalizing the dynamical matrix

     q = (    0.500000000  -0.500000000   0.500000000 ) 

 **************************************************************************
     freq (    1) =      16.747057 [THz] =     558.621707 [cm-1]
     freq (    2) =      16.747057 [THz] =     558.621707 [cm-1]
     freq (    3) =      33.798573 [THz] =    1127.399039 [cm-1]
     freq (    4) =      38.461731 [THz] =    1282.945238 [cm-1]
     freq (    5) =      38.461731 [THz] =    1282.945238 [cm-1]
     freq (    6) =      38.836262 [THz] =    1295.438263 [cm-1]
 **************************************************************************

     Calculation of q =    0.0000000   0.5000000   0.0000000

     Parallelization info
     --------------------
     sticks:   dense  smooth     PW     G-vecs:    dense   smooth      PW
     Min          55      55     18                  932      932     185
     Max          56      56     19                  935      935     187
     Sum         661     661    223                11191    11191    2229

     Using Slab Decomposition


     Title: 
     diamond                                                                    


     bravais-lattice index     =            2
     lattice parameter (alat)  =       6.6000  a.u.
     unit-cell volume          =      71.8740 (a.u.)^3
     number of atoms/cell      =            2
     number of atomic types    =            1
     number of electrons       =         8.00
     number of Kohn-Sham states=            4
     kinetic-energy cutoff     =     110.0000  Ry
     charge density cutoff     =     440.0000  Ry
     Exchange-correlation= PZ
                           (   1   1   0   0   0   0   0)

     celldm(1)=   6.600000  celldm(2)=   0.000000  celldm(3)=   0.000000
     celldm(4)=   0.000000  celldm(5)=   0.000000  celldm(6)=   0.000000

     crystal axes: (cart. coord. in units of alat)
               a(1) = (  -0.500000   0.000000   0.500000 )  
               a(2) = (   0.000000   0.500000   0.500000 )  
               a(3) = (  -0.500000   0.500000   0.000000 )  

     reciprocal axes: (cart. coord. in units 2 pi/alat)
               b(1) = ( -1.000000 -1.000000  1.000000 )  
               b(2) = (  1.000000  1.000000  1.000000 )  
               b(3) = ( -1.000000  1.000000 -1.000000 )  


     PseudoPot. # 1 for C  read from file:
     ./C.pz-vbc.UPF
     MD5 check sum: f697e42eaa1e52b77fcf7925dd36a1dd
     Pseudo is Norm-conserving, Zval =  4.0
     Generated by new atomic code, or converted to UPF format
     Using radial grid of  269 points,  1 beta functions with: 
                l(1) =   0

     atomic species   valence    mass     pseudopotential
        C              4.00    12.01100     C ( 1.00)

     48 Sym. Ops., with inversion, found



   Cartesian axes

     site n.     atom                  positions (alat units)
         1           C   tau(   1) = (   0.0000000   0.0000000   0.0000000  )
         2           C   tau(   2) = (   0.2500000   0.2500000   0.2500000  )

     number of k points=   576

     Number of k-points >= 100: set verbosity='high' to print them.

     Dense  grid:    11191 G-vectors     FFT dimensions: (  32,  32,  32)

     Estimated max dynamical RAM per process >       0.43 MB

     Estimated total dynamical RAM >       5.18 MB

     The potential is recalculated from file :
     /home/bonacc_m/Documents/phonons/diamond/TMP_diamond/_ph0/diamond.save/charge-density

     Starting wfcs are    8 atomic wfcs

     Band Structure Calculation
     Davidson diagonalization with overlap

     ethr =  1.25E-10,  avg # of iterations =  9.4

     total cpu time spent up to now is        9.6 secs

     End of band structure calculation

     Number of k-points >= 100: set verbosity='high' to print the bands.

     highest occupied level (ev):    14.0967

     Writing config to output data dir /home/bonacc_m/Documents/phonons/diamond/TMP_diamond/_ph0/diamond.save/

     diamond                                                                    

     bravais-lattice index     =            2
     lattice parameter (alat)  =       6.6000  a.u.
     unit-cell volume          =      71.8740 (a.u.)^3
     number of atoms/cell      =            2
     number of atomic types    =            1
     kinetic-energy cut-off    =     110.0000  Ry
     charge density cut-off    =     440.0000  Ry
     convergence threshold     =      1.0E-14
     beta                      =       0.7000
     number of iterations used =            4
     Exchange-correlation= PZ
                           (   1   1   0   0   0   0   0)


     celldm(1)=    6.60000  celldm(2)=    0.00000  celldm(3)=    0.00000
     celldm(4)=    0.00000  celldm(5)=    0.00000  celldm(6)=    0.00000

     crystal axes: (cart. coord. in units of alat)
               a(1) = ( -0.5000  0.0000  0.5000 )  
               a(2) = (  0.0000  0.5000  0.5000 )  
               a(3) = ( -0.5000  0.5000  0.0000 )  

     reciprocal axes: (cart. coord. in units 2 pi/alat)
               b(1) = ( -1.0000 -1.0000  1.0000 )  
               b(2) = (  1.0000  1.0000  1.0000 )  
               b(3) = ( -1.0000  1.0000 -1.0000 )  


     Atoms inside the unit cell: 

     Cartesian axes

     site n.  atom      mass           positions (alat units)
        1     C   12.0110   tau(    1) = (    0.00000    0.00000    0.00000  )
        2     C   12.0110   tau(    2) = (    0.25000    0.25000    0.25000  )

     Computing dynamical matrix for 
                    q = (   0.0000000   0.5000000   0.0000000 )

      8 Sym.Ops. (no q -> -q+G )


     G cutoff =  485.4906  (    933 G-vectors)     FFT grid: ( 32, 32, 32)
     number of k points=   576

     PseudoPot. # 1 for C  read from file:
     ./C.pz-vbc.UPF
     MD5 check sum: f697e42eaa1e52b77fcf7925dd36a1dd
     Pseudo is Norm-conserving, Zval =  4.0
     Generated by new atomic code, or converted to UPF format
     Using radial grid of  269 points,  1 beta functions with: 
                l(1) =   0

     Mode symmetry, C_4v (4mm)  point group:


     Atomic displacements:
     There are    4 irreducible representations

     Representation     1      1 modes -  To be done

     Representation     2      1 modes -  To be done

     Representation     3      2 modes -  To be done

     Representation     4      2 modes -  To be done



     Alpha used in Ewald sum =   2.8000
     PHONON       :   1m59.24s CPU   2m 6.93s WALL



     Representation #   1 mode #   1

     Self-consistent Calculation

      iter #   1 total cpu time :   128.1 secs   av.it.:   7.0
      thresh= 1.000E-02 alpha_mix =  0.700 |ddv_scf|^2 =  1.250E-03

      iter #   2 total cpu time :   129.4 secs   av.it.:   8.3
      thresh= 3.536E-03 alpha_mix =  0.700 |ddv_scf|^2 =  4.175E-03

      iter #   3 total cpu time :   130.5 secs   av.it.:   7.3
      thresh= 6.461E-03 alpha_mix =  0.700 |ddv_scf|^2 =  1.085E-07

      iter #   4 total cpu time :   131.8 secs   av.it.:   8.1
      thresh= 3.294E-05 alpha_mix =  0.700 |ddv_scf|^2 =  5.547E-10

      iter #   5 total cpu time :   133.0 secs   av.it.:   8.1
      thresh= 2.355E-06 alpha_mix =  0.700 |ddv_scf|^2 =  1.079E-11

      iter #   6 total cpu time :   134.2 secs   av.it.:   8.4
      thresh= 3.285E-07 alpha_mix =  0.700 |ddv_scf|^2 =  5.580E-14

      iter #   7 total cpu time :   135.4 secs   av.it.:   8.7
      thresh= 2.362E-08 alpha_mix =  0.700 |ddv_scf|^2 =  2.013E-16

     End of self-consistent calculation

     Convergence has been achieved 


     Representation #   2 mode #   2

     Self-consistent Calculation

      iter #   1 total cpu time :   136.4 secs   av.it.:   6.2
      thresh= 1.000E-02 alpha_mix =  0.700 |ddv_scf|^2 =  5.250E-06

      iter #   2 total cpu time :   137.8 secs   av.it.:   9.2
      thresh= 2.291E-04 alpha_mix =  0.700 |ddv_scf|^2 =  8.442E-07

      iter #   3 total cpu time :   139.1 secs   av.it.:   9.0
      thresh= 9.188E-05 alpha_mix =  0.700 |ddv_scf|^2 =  3.657E-08

      iter #   4 total cpu time :   140.4 secs   av.it.:   8.9
      thresh= 1.912E-05 alpha_mix =  0.700 |ddv_scf|^2 =  6.819E-11

      iter #   5 total cpu time :   141.7 secs   av.it.:   8.7
      thresh= 8.258E-07 alpha_mix =  0.700 |ddv_scf|^2 =  1.170E-12

      iter #   6 total cpu time :   143.0 secs   av.it.:   8.5
      thresh= 1.082E-07 alpha_mix =  0.700 |ddv_scf|^2 =  2.892E-16

     End of self-consistent calculation

     Convergence has been achieved 


     Representation #   3 modes #   3   4

     Self-consistent Calculation

      iter #   1 total cpu time :   145.1 secs   av.it.:   6.3
      thresh= 1.000E-02 alpha_mix =  0.700 |ddv_scf|^2 =  8.997E-07

      iter #   2 total cpu time :   148.0 secs   av.it.:   9.9
      thresh= 9.485E-05 alpha_mix =  0.700 |ddv_scf|^2 =  7.187E-09

      iter #   3 total cpu time :   150.8 secs   av.it.:   9.8
      thresh= 8.478E-06 alpha_mix =  0.700 |ddv_scf|^2 =  5.884E-11

      iter #   4 total cpu time :   153.5 secs   av.it.:   9.5
      thresh= 7.671E-07 alpha_mix =  0.700 |ddv_scf|^2 =  1.656E-12

      iter #   5 total cpu time :   156.2 secs   av.it.:   9.2
      thresh= 1.287E-07 alpha_mix =  0.700 |ddv_scf|^2 =  8.859E-16

     End of self-consistent calculation

     Convergence has been achieved 


     Representation #   4 modes #   5   6

     Self-consistent Calculation

      iter #   1 total cpu time :   158.2 secs   av.it.:   6.3
      thresh= 1.000E-02 alpha_mix =  0.700 |ddv_scf|^2 =  6.078E-07

      iter #   2 total cpu time :   161.0 secs   av.it.:   9.9
      thresh= 7.796E-05 alpha_mix =  0.700 |ddv_scf|^2 =  4.983E-09

      iter #   3 total cpu time :   163.8 secs   av.it.:   9.9
      thresh= 7.059E-06 alpha_mix =  0.700 |ddv_scf|^2 =  5.988E-11

      iter #   4 total cpu time :   166.5 secs   av.it.:   9.6
      thresh= 7.738E-07 alpha_mix =  0.700 |ddv_scf|^2 =  1.824E-12

      iter #   5 total cpu time :   169.1 secs   av.it.:   9.2
      thresh= 1.351E-07 alpha_mix =  0.700 |ddv_scf|^2 =  7.703E-16

     End of self-consistent calculation

     Convergence has been achieved 

     Number of q in the star =    6
     List of q in the star:
          1   0.000000000   0.500000000   0.000000000
          2   0.000000000  -0.500000000   0.000000000
          3   0.500000000   0.000000000   0.000000000
          4   0.000000000   0.000000000   0.500000000
          5   0.000000000   0.000000000  -0.500000000
          6  -0.500000000   0.000000000   0.000000000

     Diagonalizing the dynamical matrix

     q = (    0.000000000   0.500000000   0.000000000 ) 

 **************************************************************************
     freq (    1) =      16.585062 [THz] =     553.218133 [cm-1]
     freq (    2) =      16.585062 [THz] =     553.218133 [cm-1]
     freq (    3) =      23.555238 [THz] =     785.718160 [cm-1]
     freq (    4) =      38.255053 [THz] =    1276.051207 [cm-1]
     freq (    5) =      38.255053 [THz] =    1276.051207 [cm-1]
     freq (    6) =      41.716237 [THz] =    1391.503882 [cm-1]
 **************************************************************************

     Mode symmetry, C_4v (4mm)  point group:

     freq (   1-   2) =        553.2  [cm-1]   --> E    G_5 D_5       
     freq (   3-   3) =        785.7  [cm-1]   --> A_1  G_1 D_1       
     freq (   4-   5) =       1276.1  [cm-1]   --> E    G_5 D_5       
     freq (   6-   6) =       1391.5  [cm-1]   --> B_2  G_4 D_2'      

     Calculation of q =    0.7500000  -0.2500000   0.7500000

     Parallelization info
     --------------------
     sticks:   dense  smooth     PW     G-vecs:    dense   smooth      PW
     Min          55      55     21                  932      932     219
     Max          56      56     22                  935      935     221
     Sum         661     661    253                11191    11191    2637

     Using Slab Decomposition


     Title: 
     diamond                                                                    


     bravais-lattice index     =            2
     lattice parameter (alat)  =       6.6000  a.u.
     unit-cell volume          =      71.8740 (a.u.)^3
     number of atoms/cell      =            2
     number of atomic types    =            1
     number of electrons       =         8.00
     number of Kohn-Sham states=            4
     kinetic-energy cutoff     =     110.0000  Ry
     charge density cutoff     =     440.0000  Ry
     Exchange-correlation= PZ
                           (   1   1   0   0   0   0   0)

     celldm(1)=   6.600000  celldm(2)=   0.000000  celldm(3)=   0.000000
     celldm(4)=   0.000000  celldm(5)=   0.000000  celldm(6)=   0.000000

     crystal axes: (cart. coord. in units of alat)
               a(1) = (  -0.500000   0.000000   0.500000 )  
               a(2) = (   0.000000   0.500000   0.500000 )  
               a(3) = (  -0.500000   0.500000   0.000000 )  

     reciprocal axes: (cart. coord. in units 2 pi/alat)
               b(1) = ( -1.000000 -1.000000  1.000000 )  
               b(2) = (  1.000000  1.000000  1.000000 )  
               b(3) = ( -1.000000  1.000000 -1.000000 )  


     PseudoPot. # 1 for C  read from file:
     ./C.pz-vbc.UPF
     MD5 check sum: f697e42eaa1e52b77fcf7925dd36a1dd
     Pseudo is Norm-conserving, Zval =  4.0
     Generated by new atomic code, or converted to UPF format
     Using radial grid of  269 points,  1 beta functions with: 
                l(1) =   0

     atomic species   valence    mass     pseudopotential
        C              4.00    12.01100     C ( 1.00)

     48 Sym. Ops., with inversion, found



   Cartesian axes

     site n.     atom                  positions (alat units)
         1           C   tau(   1) = (   0.0000000   0.0000000   0.0000000  )
         2           C   tau(   2) = (   0.2500000   0.2500000   0.2500000  )

     number of k points=  2176

     Number of k-points >= 100: set verbosity='high' to print them.

     Dense  grid:    11191 G-vectors     FFT dimensions: (  32,  32,  32)

     Estimated max dynamical RAM per process >       0.43 MB

     Estimated total dynamical RAM >       5.19 MB

     The potential is recalculated from file :
     /home/bonacc_m/Documents/phonons/diamond/TMP_diamond/_ph0/diamond.save/charge-density

     Starting wfcs are    8 atomic wfcs

     Band Structure Calculation
     Davidson diagonalization with overlap

     ethr =  1.25E-10,  avg # of iterations =  9.4

     total cpu time spent up to now is       21.5 secs

     End of band structure calculation

     Number of k-points >= 100: set verbosity='high' to print the bands.

     highest occupied level (ev):    14.0967

     Writing config to output data dir /home/bonacc_m/Documents/phonons/diamond/TMP_diamond/_ph0/diamond.save/

     diamond                                                                    

     bravais-lattice index     =            2
     lattice parameter (alat)  =       6.6000  a.u.
     unit-cell volume          =      71.8740 (a.u.)^3
     number of atoms/cell      =            2
     number of atomic types    =            1
     kinetic-energy cut-off    =     110.0000  Ry
     charge density cut-off    =     440.0000  Ry
     convergence threshold     =      1.0E-14
     beta                      =       0.7000
     number of iterations used =            4
     Exchange-correlation= PZ
                           (   1   1   0   0   0   0   0)


     celldm(1)=    6.60000  celldm(2)=    0.00000  celldm(3)=    0.00000
     celldm(4)=    0.00000  celldm(5)=    0.00000  celldm(6)=    0.00000

     crystal axes: (cart. coord. in units of alat)
               a(1) = ( -0.5000  0.0000  0.5000 )  
               a(2) = (  0.0000  0.5000  0.5000 )  
               a(3) = ( -0.5000  0.5000  0.0000 )  

     reciprocal axes: (cart. coord. in units 2 pi/alat)
               b(1) = ( -1.0000 -1.0000  1.0000 )  
               b(2) = (  1.0000  1.0000  1.0000 )  
               b(3) = ( -1.0000  1.0000 -1.0000 )  


     Atoms inside the unit cell: 

     Cartesian axes

     site n.  atom      mass           positions (alat units)
        1     C   12.0110   tau(    1) = (    0.00000    0.00000    0.00000  )
        2     C   12.0110   tau(    2) = (    0.25000    0.25000    0.25000  )

     Computing dynamical matrix for 
                    q = (   0.7500000  -0.2500000   0.7500000 )

      2 Sym.Ops. (no q -> -q+G )


     G cutoff =  485.4906  (    933 G-vectors)     FFT grid: ( 32, 32, 32)
     number of k points=  2176

     PseudoPot. # 1 for C  read from file:
     ./C.pz-vbc.UPF
     MD5 check sum: f697e42eaa1e52b77fcf7925dd36a1dd
     Pseudo is Norm-conserving, Zval =  4.0
     Generated by new atomic code, or converted to UPF format
     Using radial grid of  269 points,  1 beta functions with: 
                l(1) =   0

     Mode symmetry, C_s (m)     point group:


     Atomic displacements:
     There are    6 irreducible representations

     Representation     1      1 modes -  To be done

     Representation     2      1 modes -  To be done

     Representation     3      1 modes -  To be done

     Representation     4      1 modes -  To be done

     Representation     5      1 modes -  To be done

     Representation     6      1 modes -  To be done



     Alpha used in Ewald sum =   2.8000
     PHONON       :   2m50.45s CPU   3m 1.35s WALL



     Representation #   1 mode #   1

     Self-consistent Calculation

      iter #   1 total cpu time :   185.5 secs   av.it.:   6.8
      thresh= 1.000E-02 alpha_mix =  0.700 |ddv_scf|^2 =  7.258E-05

      iter #   2 total cpu time :   190.4 secs   av.it.:   9.1
      thresh= 8.519E-04 alpha_mix =  0.700 |ddv_scf|^2 =  6.152E-05

      iter #   3 total cpu time :   195.0 secs   av.it.:   8.4
      thresh= 7.843E-04 alpha_mix =  0.700 |ddv_scf|^2 =  2.776E-07

      iter #   4 total cpu time :   199.9 secs   av.it.:   8.8
      thresh= 5.269E-05 alpha_mix =  0.700 |ddv_scf|^2 =  4.839E-09

      iter #   5 total cpu time :   204.8 secs   av.it.:   9.0
      thresh= 6.956E-06 alpha_mix =  0.700 |ddv_scf|^2 =  1.443E-10

      iter #   6 total cpu time :   209.9 secs   av.it.:   9.1
      thresh= 1.201E-06 alpha_mix =  0.700 |ddv_scf|^2 =  3.423E-12

      iter #   7 total cpu time :   214.6 secs   av.it.:   8.7
      thresh= 1.850E-07 alpha_mix =  0.700 |ddv_scf|^2 =  5.220E-14

      iter #   8 total cpu time :   219.4 secs   av.it.:   8.9
      thresh= 2.285E-08 alpha_mix =  0.700 |ddv_scf|^2 =  7.121E-15

     End of self-consistent calculation

     Convergence has been achieved 


     Representation #   2 mode #   2

     Self-consistent Calculation

      iter #   1 total cpu time :   223.5 secs   av.it.:   6.8
      thresh= 1.000E-02 alpha_mix =  0.700 |ddv_scf|^2 =  4.480E-05

      iter #   2 total cpu time :   228.6 secs   av.it.:   9.0
      thresh= 6.693E-04 alpha_mix =  0.700 |ddv_scf|^2 =  3.585E-05

      iter #   3 total cpu time :   233.5 secs   av.it.:   8.3
      thresh= 5.987E-04 alpha_mix =  0.700 |ddv_scf|^2 =  2.204E-07

      iter #   4 total cpu time :   238.5 secs   av.it.:   8.9
      thresh= 4.695E-05 alpha_mix =  0.700 |ddv_scf|^2 =  1.252E-09

      iter #   5 total cpu time :   243.7 secs   av.it.:   9.2
      thresh= 3.538E-06 alpha_mix =  0.700 |ddv_scf|^2 =  2.076E-10

      iter #   6 total cpu time :   248.6 secs   av.it.:   8.9
      thresh= 1.441E-06 alpha_mix =  0.700 |ddv_scf|^2 =  7.758E-12

      iter #   7 total cpu time :   253.5 secs   av.it.:   8.9
      thresh= 2.785E-07 alpha_mix =  0.700 |ddv_scf|^2 =  9.723E-14

      iter #   8 total cpu time :   258.4 secs   av.it.:   8.7
      thresh= 3.118E-08 alpha_mix =  0.700 |ddv_scf|^2 =  1.939E-15

     End of self-consistent calculation

     Convergence has been achieved 


     Representation #   3 mode #   3

     Self-consistent Calculation

      iter #   1 total cpu time :   262.5 secs   av.it.:   6.8
      thresh= 1.000E-02 alpha_mix =  0.700 |ddv_scf|^2 =  4.409E-05

      iter #   2 total cpu time :   267.7 secs   av.it.:   9.1
      thresh= 6.640E-04 alpha_mix =  0.700 |ddv_scf|^2 =  3.458E-05

      iter #   3 total cpu time :   272.5 secs   av.it.:   8.5
      thresh= 5.881E-04 alpha_mix =  0.700 |ddv_scf|^2 =  2.717E-07

      iter #   4 total cpu time :   277.3 secs   av.it.:   8.8
      thresh= 5.212E-05 alpha_mix =  0.700 |ddv_scf|^2 =  6.360E-09

      iter #   5 total cpu time :   282.2 secs   av.it.:   8.9
      thresh= 7.975E-06 alpha_mix =  0.700 |ddv_scf|^2 =  1.919E-10

      iter #   6 total cpu time :   287.1 secs   av.it.:   9.0
      thresh= 1.385E-06 alpha_mix =  0.700 |ddv_scf|^2 =  3.847E-12

      iter #   7 total cpu time :   292.1 secs   av.it.:   8.8
      thresh= 1.961E-07 alpha_mix =  0.700 |ddv_scf|^2 =  8.050E-14

      iter #   8 total cpu time :   297.2 secs   av.it.:   8.9
      thresh= 2.837E-08 alpha_mix =  0.700 |ddv_scf|^2 =  6.066E-15

     End of self-consistent calculation

     Convergence has been achieved 


     Representation #   4 mode #   4

     Self-consistent Calculation

      iter #   1 total cpu time :   301.2 secs   av.it.:   6.5
      thresh= 1.000E-02 alpha_mix =  0.700 |ddv_scf|^2 =  1.631E-05

      iter #   2 total cpu time :   306.3 secs   av.it.:   9.2
      thresh= 4.038E-04 alpha_mix =  0.700 |ddv_scf|^2 =  8.910E-06

      iter #   3 total cpu time :   311.3 secs   av.it.:   8.6
      thresh= 2.985E-04 alpha_mix =  0.700 |ddv_scf|^2 =  2.668E-07

      iter #   4 total cpu time :   316.2 secs   av.it.:   8.5
      thresh= 5.166E-05 alpha_mix =  0.700 |ddv_scf|^2 =  3.842E-09

      iter #   5 total cpu time :   322.1 secs   av.it.:   9.0
      thresh= 6.198E-06 alpha_mix =  0.700 |ddv_scf|^2 =  2.898E-10

      iter #   6 total cpu time :   329.4 secs   av.it.:   9.0
      thresh= 1.702E-06 alpha_mix =  0.700 |ddv_scf|^2 =  6.151E-12

      iter #   7 total cpu time :   336.6 secs   av.it.:   9.0
      thresh= 2.480E-07 alpha_mix =  0.700 |ddv_scf|^2 =  1.469E-13

      iter #   8 total cpu time :   343.9 secs   av.it.:   8.9
      thresh= 3.833E-08 alpha_mix =  0.700 |ddv_scf|^2 =  1.009E-15

     End of self-consistent calculation

     Convergence has been achieved 


     Representation #   5 mode #   5

     Self-consistent Calculation

      iter #   1 total cpu time :   349.7 secs   av.it.:   6.3
      thresh= 1.000E-02 alpha_mix =  0.700 |ddv_scf|^2 =  3.522E-06

      iter #   2 total cpu time :   357.2 secs   av.it.:   9.0
      thresh= 1.877E-04 alpha_mix =  0.700 |ddv_scf|^2 =  4.308E-08

      iter #   3 total cpu time :   364.6 secs   av.it.:   9.0
      thresh= 2.076E-05 alpha_mix =  0.700 |ddv_scf|^2 =  2.631E-10

      iter #   4 total cpu time :   372.1 secs   av.it.:   8.8
      thresh= 1.622E-06 alpha_mix =  0.700 |ddv_scf|^2 =  6.768E-12

      iter #   5 total cpu time :   379.5 secs   av.it.:   8.4
      thresh= 2.601E-07 alpha_mix =  0.700 |ddv_scf|^2 =  7.878E-15

     End of self-consistent calculation

     Convergence has been achieved 


     Representation #   6 mode #   6

     Self-consistent Calculation

      iter #   1 total cpu time :   385.5 secs   av.it.:   6.3
      thresh= 1.000E-02 alpha_mix =  0.700 |ddv_scf|^2 =  3.522E-06

      iter #   2 total cpu time :   393.4 secs   av.it.:   9.0
      thresh= 1.877E-04 alpha_mix =  0.700 |ddv_scf|^2 =  4.308E-08

      iter #   3 total cpu time :   400.9 secs   av.it.:   9.0
      thresh= 2.076E-05 alpha_mix =  0.700 |ddv_scf|^2 =  2.631E-10

      iter #   4 total cpu time :   406.0 secs   av.it.:   8.8
      thresh= 1.622E-06 alpha_mix =  0.700 |ddv_scf|^2 =  6.768E-12

      iter #   5 total cpu time :   410.7 secs   av.it.:   8.4
      thresh= 2.601E-07 alpha_mix =  0.700 |ddv_scf|^2 =  7.877E-15

     End of self-consistent calculation

     Convergence has been achieved 

     Number of q in the star =   24
     List of q in the star:
          1   0.750000000  -0.250000000   0.750000000
          2   0.750000000  -0.250000000  -0.750000000
          3  -0.750000000  -0.250000000  -0.750000000
          4  -0.750000000  -0.250000000   0.750000000
          5  -0.750000000   0.250000000  -0.750000000
          6  -0.250000000   0.750000000  -0.750000000
          7  -0.750000000   0.750000000  -0.250000000
          8   0.750000000   0.250000000   0.750000000
          9  -0.750000000   0.250000000   0.750000000
         10   0.750000000   0.250000000  -0.750000000
         11  -0.750000000   0.750000000   0.250000000
         12  -0.250000000   0.750000000   0.750000000
         13   0.250000000   0.750000000  -0.750000000
         14  -0.250000000  -0.750000000  -0.750000000
         15   0.750000000   0.750000000  -0.250000000
         16   0.750000000  -0.750000000   0.250000000
         17  -0.750000000  -0.750000000  -0.250000000
         18   0.250000000  -0.750000000   0.750000000
         19  -0.750000000  -0.750000000   0.250000000
         20   0.250000000   0.750000000   0.750000000
         21  -0.250000000  -0.750000000   0.750000000
         22   0.750000000   0.750000000   0.250000000
         23   0.250000000  -0.750000000  -0.750000000
         24   0.750000000  -0.750000000  -0.250000000

     Diagonalizing the dynamical matrix

     q = (    0.750000000  -0.250000000   0.750000000 ) 

 **************************************************************************
     freq (    1) =      20.965399 [THz] =     699.330445 [cm-1]
     freq (    2) =      25.663054 [THz] =     856.027328 [cm-1]
     freq (    3) =      30.577737 [THz] =    1019.963504 [cm-1]
     freq (    4) =      36.298122 [THz] =    1210.775016 [cm-1]
     freq (    5) =      36.636843 [THz] =    1222.073545 [cm-1]
     freq (    6) =      39.263904 [THz] =    1309.702860 [cm-1]
 **************************************************************************

     Mode symmetry, C_s (m)     point group:

     freq (   1-   1) =        699.3  [cm-1]   --> A''                
     freq (   2-   2) =        856.0  [cm-1]   --> A'                 
     freq (   3-   3) =       1020.0  [cm-1]   --> A'                 
     freq (   4-   4) =       1210.8  [cm-1]   --> A''                
     freq (   5-   5) =       1222.1  [cm-1]   --> A'                 
     freq (   6-   6) =       1309.7  [cm-1]   --> A'                 

     Calculation of q =    0.5000000   0.0000000   0.5000000

     Parallelization info
     --------------------
     sticks:   dense  smooth     PW     G-vecs:    dense   smooth      PW
     Min          55      55     20                  932      932     199
     Max          56      56     21                  935      935     201
     Sum         661     661    241                11191    11191    2397

     Using Slab Decomposition


     Title: 
     diamond                                                                    


     bravais-lattice index     =            2
     lattice parameter (alat)  =       6.6000  a.u.
     unit-cell volume          =      71.8740 (a.u.)^3
     number of atoms/cell      =            2
     number of atomic types    =            1
     number of electrons       =         8.00
     number of Kohn-Sham states=            4
     kinetic-energy cutoff     =     110.0000  Ry
     charge density cutoff     =     440.0000  Ry
     Exchange-correlation= PZ
                           (   1   1   0   0   0   0   0)

     celldm(1)=   6.600000  celldm(2)=   0.000000  celldm(3)=   0.000000
     celldm(4)=   0.000000  celldm(5)=   0.000000  celldm(6)=   0.000000

     crystal axes: (cart. coord. in units of alat)
               a(1) = (  -0.500000   0.000000   0.500000 )  
               a(2) = (   0.000000   0.500000   0.500000 )  
               a(3) = (  -0.500000   0.500000   0.000000 )  

     reciprocal axes: (cart. coord. in units 2 pi/alat)
               b(1) = ( -1.000000 -1.000000  1.000000 )  
               b(2) = (  1.000000  1.000000  1.000000 )  
               b(3) = ( -1.000000  1.000000 -1.000000 )  


     PseudoPot. # 1 for C  read from file:
     ./C.pz-vbc.UPF
     MD5 check sum: f697e42eaa1e52b77fcf7925dd36a1dd
     Pseudo is Norm-conserving, Zval =  4.0
     Generated by new atomic code, or converted to UPF format
     Using radial grid of  269 points,  1 beta functions with: 
                l(1) =   0

     atomic species   valence    mass     pseudopotential
        C              4.00    12.01100     C ( 1.00)

     48 Sym. Ops., with inversion, found



   Cartesian axes

     site n.     atom                  positions (alat units)
         1           C   tau(   1) = (   0.0000000   0.0000000   0.0000000  )
         2           C   tau(   2) = (   0.2500000   0.2500000   0.2500000  )

     number of k points=  1088

     Number of k-points >= 100: set verbosity='high' to print them.

     Dense  grid:    11191 G-vectors     FFT dimensions: (  32,  32,  32)

     Estimated max dynamical RAM per process >       0.43 MB

     Estimated total dynamical RAM >       5.18 MB

     The potential is recalculated from file :
     /home/bonacc_m/Documents/phonons/diamond/TMP_diamond/_ph0/diamond.save/charge-density

     Starting wfcs are    8 atomic wfcs

     Band Structure Calculation
     Davidson diagonalization with overlap

     ethr =  1.25E-10,  avg # of iterations =  9.4

     total cpu time spent up to now is       27.6 secs

     End of band structure calculation

     Number of k-points >= 100: set verbosity='high' to print the bands.

     highest occupied level (ev):    14.0967

     Writing config to output data dir /home/bonacc_m/Documents/phonons/diamond/TMP_diamond/_ph0/diamond.save/

     diamond                                                                    

     bravais-lattice index     =            2
     lattice parameter (alat)  =       6.6000  a.u.
     unit-cell volume          =      71.8740 (a.u.)^3
     number of atoms/cell      =            2
     number of atomic types    =            1
     kinetic-energy cut-off    =     110.0000  Ry
     charge density cut-off    =     440.0000  Ry
     convergence threshold     =      1.0E-14
     beta                      =       0.7000
     number of iterations used =            4
     Exchange-correlation= PZ
                           (   1   1   0   0   0   0   0)


     celldm(1)=    6.60000  celldm(2)=    0.00000  celldm(3)=    0.00000
     celldm(4)=    0.00000  celldm(5)=    0.00000  celldm(6)=    0.00000

     crystal axes: (cart. coord. in units of alat)
               a(1) = ( -0.5000  0.0000  0.5000 )  
               a(2) = (  0.0000  0.5000  0.5000 )  
               a(3) = ( -0.5000  0.5000  0.0000 )  

     reciprocal axes: (cart. coord. in units 2 pi/alat)
               b(1) = ( -1.0000 -1.0000  1.0000 )  
               b(2) = (  1.0000  1.0000  1.0000 )  
               b(3) = ( -1.0000  1.0000 -1.0000 )  


     Atoms inside the unit cell: 

     Cartesian axes

     site n.  atom      mass           positions (alat units)
        1     C   12.0110   tau(    1) = (    0.00000    0.00000    0.00000  )
        2     C   12.0110   tau(    2) = (    0.25000    0.25000    0.25000  )

     Computing dynamical matrix for 
                    q = (   0.5000000   0.0000000   0.5000000 )

      4 Sym.Ops. (no q -> -q+G )


     G cutoff =  485.4906  (    933 G-vectors)     FFT grid: ( 32, 32, 32)
     number of k points=  1088

     PseudoPot. # 1 for C  read from file:
     ./C.pz-vbc.UPF
     MD5 check sum: f697e42eaa1e52b77fcf7925dd36a1dd
     Pseudo is Norm-conserving, Zval =  4.0
     Generated by new atomic code, or converted to UPF format
     Using radial grid of  269 points,  1 beta functions with: 
                l(1) =   0

     Mode symmetry, C_2v (mm2)  point group:


     Atomic displacements:
     There are    6 irreducible representations

     Representation     1      1 modes -  To be done

     Representation     2      1 modes -  To be done

     Representation     3      1 modes -  To be done

     Representation     4      1 modes -  To be done

     Representation     5      1 modes -  To be done

     Representation     6      1 modes -  To be done



     Alpha used in Ewald sum =   2.8000
     PHONON       :   6m33.52s CPU   6m56.94s WALL



     Representation #   1 mode #   1

     Self-consistent Calculation

      iter #   1 total cpu time :   419.0 secs   av.it.:   6.9
      thresh= 1.000E-02 alpha_mix =  0.700 |ddv_scf|^2 =  1.981E-04

      iter #   2 total cpu time :   421.5 secs   av.it.:   8.7
      thresh= 1.407E-03 alpha_mix =  0.700 |ddv_scf|^2 =  2.821E-04

      iter #   3 total cpu time :   423.8 secs   av.it.:   8.0
      thresh= 1.680E-03 alpha_mix =  0.700 |ddv_scf|^2 =  1.159E-07

      iter #   4 total cpu time :   426.3 secs   av.it.:   8.8
      thresh= 3.405E-05 alpha_mix =  0.700 |ddv_scf|^2 =  1.017E-09

      iter #   5 total cpu time :   428.9 secs   av.it.:   8.5
      thresh= 3.189E-06 alpha_mix =  0.700 |ddv_scf|^2 =  9.349E-12

      iter #   6 total cpu time :   431.5 secs   av.it.:   8.6
      thresh= 3.058E-07 alpha_mix =  0.700 |ddv_scf|^2 =  1.043E-13

      iter #   7 total cpu time :   434.0 secs   av.it.:   8.7
      thresh= 3.229E-08 alpha_mix =  0.700 |ddv_scf|^2 =  3.943E-15

     End of self-consistent calculation

     Convergence has been achieved 


     Representation #   2 mode #   2

     Self-consistent Calculation

      iter #   1 total cpu time :   436.0 secs   av.it.:   6.9
      thresh= 1.000E-02 alpha_mix =  0.700 |ddv_scf|^2 =  1.065E-04

      iter #   2 total cpu time :   438.7 secs   av.it.:   8.9
      thresh= 1.032E-03 alpha_mix =  0.700 |ddv_scf|^2 =  1.398E-04

      iter #   3 total cpu time :   440.9 secs   av.it.:   8.0
      thresh= 1.182E-03 alpha_mix =  0.700 |ddv_scf|^2 =  3.055E-07

      iter #   4 total cpu time :   443.4 secs   av.it.:   8.8
      thresh= 5.527E-05 alpha_mix =  0.700 |ddv_scf|^2 =  1.360E-09

      iter #   5 total cpu time :   445.7 secs   av.it.:   8.6
      thresh= 3.688E-06 alpha_mix =  0.700 |ddv_scf|^2 =  9.674E-12

      iter #   6 total cpu time :   448.2 secs   av.it.:   8.4
      thresh= 3.110E-07 alpha_mix =  0.700 |ddv_scf|^2 =  1.175E-13

      iter #   7 total cpu time :   450.5 secs   av.it.:   8.7
      thresh= 3.427E-08 alpha_mix =  0.700 |ddv_scf|^2 =  7.581E-15

     End of self-consistent calculation

     Convergence has been achieved 


     Representation #   3 mode #   3

     Self-consistent Calculation

      iter #   1 total cpu time :   452.5 secs   av.it.:   6.2
      thresh= 1.000E-02 alpha_mix =  0.700 |ddv_scf|^2 =  4.077E-06

      iter #   2 total cpu time :   455.0 secs   av.it.:   8.9
      thresh= 2.019E-04 alpha_mix =  0.700 |ddv_scf|^2 =  1.506E-08

      iter #   3 total cpu time :   457.4 secs   av.it.:   8.9
      thresh= 1.227E-05 alpha_mix =  0.700 |ddv_scf|^2 =  2.197E-10

      iter #   4 total cpu time :   459.8 secs   av.it.:   8.5
      thresh= 1.482E-06 alpha_mix =  0.700 |ddv_scf|^2 =  2.688E-12

      iter #   5 total cpu time :   462.2 secs   av.it.:   8.3
      thresh= 1.640E-07 alpha_mix =  0.700 |ddv_scf|^2 =  8.600E-16

     End of self-consistent calculation

     Convergence has been achieved 


     Representation #   4 mode #   4

     Self-consistent Calculation

      iter #   1 total cpu time :   464.1 secs   av.it.:   6.0
      thresh= 1.000E-02 alpha_mix =  0.700 |ddv_scf|^2 =  4.495E-07

      iter #   2 total cpu time :   466.8 secs   av.it.:   9.0
      thresh= 6.705E-05 alpha_mix =  0.700 |ddv_scf|^2 =  3.398E-09

      iter #   3 total cpu time :   469.4 secs   av.it.:   8.9
      thresh= 5.829E-06 alpha_mix =  0.700 |ddv_scf|^2 =  9.771E-11

      iter #   4 total cpu time :   471.6 secs   av.it.:   8.1
      thresh= 9.885E-07 alpha_mix =  0.700 |ddv_scf|^2 =  2.902E-14

      iter #   5 total cpu time :   474.2 secs   av.it.:   9.3
      thresh= 1.703E-08 alpha_mix =  0.700 |ddv_scf|^2 =  2.102E-16

     End of self-consistent calculation

     Convergence has been achieved 


     Representation #   5 mode #   5

     Self-consistent Calculation

      iter #   1 total cpu time :   476.2 secs   av.it.:   6.5
      thresh= 1.000E-02 alpha_mix =  0.700 |ddv_scf|^2 =  1.428E-05

      iter #   2 total cpu time :   479.0 secs   av.it.:   9.2
      thresh= 3.779E-04 alpha_mix =  0.700 |ddv_scf|^2 =  4.092E-06

      iter #   3 total cpu time :   481.5 secs   av.it.:   8.9
      thresh= 2.023E-04 alpha_mix =  0.700 |ddv_scf|^2 =  5.496E-08

      iter #   4 total cpu time :   483.8 secs   av.it.:   8.9
      thresh= 2.344E-05 alpha_mix =  0.700 |ddv_scf|^2 =  7.188E-11

      iter #   5 total cpu time :   486.4 secs   av.it.:   8.6
      thresh= 8.478E-07 alpha_mix =  0.700 |ddv_scf|^2 =  1.760E-12

      iter #   6 total cpu time :   488.8 secs   av.it.:   8.4
      thresh= 1.327E-07 alpha_mix =  0.700 |ddv_scf|^2 =  2.315E-15

     End of self-consistent calculation

     Convergence has been achieved 


     Representation #   6 mode #   6

     Self-consistent Calculation

      iter #   1 total cpu time :   490.7 secs   av.it.:   6.2
      thresh= 1.000E-02 alpha_mix =  0.700 |ddv_scf|^2 =  4.439E-06

      iter #   2 total cpu time :   493.3 secs   av.it.:   9.3
      thresh= 2.107E-04 alpha_mix =  0.700 |ddv_scf|^2 =  1.296E-06

      iter #   3 total cpu time :   495.8 secs   av.it.:   8.9
      thresh= 1.138E-04 alpha_mix =  0.700 |ddv_scf|^2 =  1.883E-08

      iter #   4 total cpu time :   498.2 secs   av.it.:   9.0
      thresh= 1.372E-05 alpha_mix =  0.700 |ddv_scf|^2 =  6.210E-11

      iter #   5 total cpu time :   500.6 secs   av.it.:   9.0
      thresh= 7.880E-07 alpha_mix =  0.700 |ddv_scf|^2 =  2.367E-12

      iter #   6 total cpu time :   503.0 secs   av.it.:   8.6
      thresh= 1.538E-07 alpha_mix =  0.700 |ddv_scf|^2 =  3.465E-15

     End of self-consistent calculation

     Convergence has been achieved 

     Number of q in the star =   12
     List of q in the star:
          1   0.500000000   0.000000000   0.500000000
          2  -0.500000000   0.000000000   0.500000000
          3  -0.500000000   0.000000000  -0.500000000
          4   0.500000000   0.000000000  -0.500000000
          5   0.000000000   0.500000000  -0.500000000
          6  -0.500000000   0.500000000   0.000000000
          7   0.000000000   0.500000000   0.500000000
          8   0.000000000  -0.500000000  -0.500000000
          9   0.500000000   0.500000000   0.000000000
         10   0.500000000  -0.500000000   0.000000000
         11  -0.500000000  -0.500000000   0.000000000
         12   0.000000000  -0.500000000   0.500000000

     Diagonalizing the dynamical matrix

     q = (    0.500000000   0.000000000   0.500000000 ) 

 **************************************************************************
     freq (    1) =      18.991445 [THz] =     633.486405 [cm-1]
     freq (    2) =      24.244139 [THz] =     808.697415 [cm-1]
     freq (    3) =      27.217468 [THz] =     907.877006 [cm-1]
     freq (    4) =      37.067257 [THz] =    1236.430598 [cm-1]
     freq (    5) =      38.217411 [THz] =    1274.795627 [cm-1]
     freq (    6) =      39.459181 [THz] =    1316.216606 [cm-1]
 **************************************************************************

     Mode symmetry, C_2v (mm2)  point group:

     freq (   1-   1) =        633.5  [cm-1]   --> B_1  D_3  S_3      
     freq (   2-   2) =        808.7  [cm-1]   --> B_2  D_4  S_4      
     freq (   3-   3) =        907.9  [cm-1]   --> A_1  D_1  S_1      
     freq (   4-   4) =       1236.4  [cm-1]   --> A_2  D_2  S_2      
     freq (   5-   5) =       1274.8  [cm-1]   --> B_2  D_4  S_4      
     freq (   6-   6) =       1316.2  [cm-1]   --> A_1  D_1  S_1      

     Calculation of q =    0.0000000  -1.0000000   0.0000000

     Parallelization info
     --------------------
     sticks:   dense  smooth     PW     G-vecs:    dense   smooth      PW
     Min          55      55     20                  932      932     201
     Max          56      56     21                  935      935     203
     Sum         661     661    241                11191    11191    2421

     Using Slab Decomposition


     Title: 
     diamond                                                                    


     bravais-lattice index     =            2
     lattice parameter (alat)  =       6.6000  a.u.
     unit-cell volume          =      71.8740 (a.u.)^3
     number of atoms/cell      =            2
     number of atomic types    =            1
     number of electrons       =         8.00
     number of Kohn-Sham states=            4
     kinetic-energy cutoff     =     110.0000  Ry
     charge density cutoff     =     440.0000  Ry
     Exchange-correlation= PZ
                           (   1   1   0   0   0   0   0)

     celldm(1)=   6.600000  celldm(2)=   0.000000  celldm(3)=   0.000000
     celldm(4)=   0.000000  celldm(5)=   0.000000  celldm(6)=   0.000000

     crystal axes: (cart. coord. in units of alat)
               a(1) = (  -0.500000   0.000000   0.500000 )  
               a(2) = (   0.000000   0.500000   0.500000 )  
               a(3) = (  -0.500000   0.500000   0.000000 )  

     reciprocal axes: (cart. coord. in units 2 pi/alat)
               b(1) = ( -1.000000 -1.000000  1.000000 )  
               b(2) = (  1.000000  1.000000  1.000000 )  
               b(3) = ( -1.000000  1.000000 -1.000000 )  


     PseudoPot. # 1 for C  read from file:
     ./C.pz-vbc.UPF
     MD5 check sum: f697e42eaa1e52b77fcf7925dd36a1dd
     Pseudo is Norm-conserving, Zval =  4.0
     Generated by new atomic code, or converted to UPF format
     Using radial grid of  269 points,  1 beta functions with: 
                l(1) =   0

     atomic species   valence    mass     pseudopotential
        C              4.00    12.01100     C ( 1.00)

     48 Sym. Ops., with inversion, found



   Cartesian axes

     site n.     atom                  positions (alat units)
         1           C   tau(   1) = (   0.0000000   0.0000000   0.0000000  )
         2           C   tau(   2) = (   0.2500000   0.2500000   0.2500000  )

     number of k points=   288

     Number of k-points >= 100: set verbosity='high' to print them.

     Dense  grid:    11191 G-vectors     FFT dimensions: (  32,  32,  32)

     Estimated max dynamical RAM per process >       0.43 MB

     Estimated total dynamical RAM >       5.19 MB

     The potential is recalculated from file :
     /home/bonacc_m/Documents/phonons/diamond/TMP_diamond/_ph0/diamond.save/charge-density

     Starting wfcs are    8 atomic wfcs

     Band Structure Calculation
     Davidson diagonalization with overlap

     ethr =  1.25E-10,  avg # of iterations =  9.4

     total cpu time spent up to now is       29.3 secs

     End of band structure calculation

     Number of k-points >= 100: set verbosity='high' to print the bands.

     highest occupied level (ev):    14.0967

     Writing config to output data dir /home/bonacc_m/Documents/phonons/diamond/TMP_diamond/_ph0/diamond.save/

     diamond                                                                    

     bravais-lattice index     =            2
     lattice parameter (alat)  =       6.6000  a.u.
     unit-cell volume          =      71.8740 (a.u.)^3
     number of atoms/cell      =            2
     number of atomic types    =            1
     kinetic-energy cut-off    =     110.0000  Ry
     charge density cut-off    =     440.0000  Ry
     convergence threshold     =      1.0E-14
     beta                      =       0.7000
     number of iterations used =            4
     Exchange-correlation= PZ
                           (   1   1   0   0   0   0   0)


     celldm(1)=    6.60000  celldm(2)=    0.00000  celldm(3)=    0.00000
     celldm(4)=    0.00000  celldm(5)=    0.00000  celldm(6)=    0.00000

     crystal axes: (cart. coord. in units of alat)
               a(1) = ( -0.5000  0.0000  0.5000 )  
               a(2) = (  0.0000  0.5000  0.5000 )  
               a(3) = ( -0.5000  0.5000  0.0000 )  

     reciprocal axes: (cart. coord. in units 2 pi/alat)
               b(1) = ( -1.0000 -1.0000  1.0000 )  
               b(2) = (  1.0000  1.0000  1.0000 )  
               b(3) = ( -1.0000  1.0000 -1.0000 )  


     Atoms inside the unit cell: 

     Cartesian axes

     site n.  atom      mass           positions (alat units)
        1     C   12.0110   tau(    1) = (    0.00000    0.00000    0.00000  )
        2     C   12.0110   tau(    2) = (    0.25000    0.25000    0.25000  )

     Computing dynamical matrix for 
                    q = (   0.0000000  -1.0000000   0.0000000 )

     17 Sym.Ops. (with q -> -q+G )


     G cutoff =  485.4906  (    933 G-vectors)     FFT grid: ( 32, 32, 32)
     number of k points=   288

     PseudoPot. # 1 for C  read from file:
     ./C.pz-vbc.UPF
     MD5 check sum: f697e42eaa1e52b77fcf7925dd36a1dd
     Pseudo is Norm-conserving, Zval =  4.0
     Generated by new atomic code, or converted to UPF format
     Using radial grid of  269 points,  1 beta functions with: 
                l(1) =   0


     Atomic displacements:
     There are    3 irreducible representations

     Representation     1      2 modes -  To be done

     Representation     2      2 modes -  To be done

     Representation     3      2 modes -  To be done



     Alpha used in Ewald sum =   2.8000
     PHONON       :   7m56.34s CPU   8m24.66s WALL



     Representation #   1 modes #   1   2

     Self-consistent Calculation

      iter #   1 total cpu time :   505.8 secs   av.it.:   6.5
      thresh= 1.000E-02 alpha_mix =  0.700 |ddv_scf|^2 =  2.525E-06

      iter #   2 total cpu time :   507.3 secs   av.it.:   9.9
      thresh= 1.589E-04 alpha_mix =  0.700 |ddv_scf|^2 =  6.131E-08

      iter #   3 total cpu time :   508.7 secs   av.it.:   9.8
      thresh= 2.476E-05 alpha_mix =  0.700 |ddv_scf|^2 =  7.067E-11

      iter #   4 total cpu time :   510.3 secs   av.it.:   9.4
      thresh= 8.407E-07 alpha_mix =  0.700 |ddv_scf|^2 =  2.797E-13

      iter #   5 total cpu time :   511.7 secs   av.it.:   9.6
      thresh= 5.288E-08 alpha_mix =  0.700 |ddv_scf|^2 =  2.023E-15

     End of self-consistent calculation

     Convergence has been achieved 


     Representation #   2 modes #   3   4

     Self-consistent Calculation

      iter #   1 total cpu time :   512.9 secs   av.it.:   6.9
      thresh= 1.000E-02 alpha_mix =  0.700 |ddv_scf|^2 =  1.250E-05

      iter #   2 total cpu time :   514.4 secs   av.it.:   9.9
      thresh= 3.535E-04 alpha_mix =  0.700 |ddv_scf|^2 =  6.799E-06

      iter #   3 total cpu time :   515.8 secs   av.it.:   9.4
      thresh= 2.607E-04 alpha_mix =  0.700 |ddv_scf|^2 =  1.883E-08

      iter #   4 total cpu time :   517.2 secs   av.it.:   9.6
      thresh= 1.372E-05 alpha_mix =  0.700 |ddv_scf|^2 =  7.490E-11

      iter #   5 total cpu time :   518.5 secs   av.it.:   9.5
      thresh= 8.655E-07 alpha_mix =  0.700 |ddv_scf|^2 =  3.890E-13

      iter #   6 total cpu time :   519.9 secs   av.it.:   8.9
      thresh= 6.237E-08 alpha_mix =  0.700 |ddv_scf|^2 =  1.134E-14

      iter #   7 total cpu time :   521.4 secs   av.it.:   9.6
      thresh= 1.065E-08 alpha_mix =  0.700 |ddv_scf|^2 =  1.316E-17

     End of self-consistent calculation

     Convergence has been achieved 


     Representation #   3 modes #   5   6

     Self-consistent Calculation

      iter #   1 total cpu time :   522.5 secs   av.it.:   6.1
      thresh= 1.000E-02 alpha_mix =  0.700 |ddv_scf|^2 =  2.646E-08

      iter #   2 total cpu time :   524.1 secs   av.it.:  10.1
      thresh= 1.627E-05 alpha_mix =  0.700 |ddv_scf|^2 =  7.708E-10

      iter #   3 total cpu time :   525.7 secs   av.it.:  10.1
      thresh= 2.776E-06 alpha_mix =  0.700 |ddv_scf|^2 =  1.277E-11

      iter #   4 total cpu time :   527.1 secs   av.it.:   9.3
      thresh= 3.573E-07 alpha_mix =  0.700 |ddv_scf|^2 =  2.928E-15

     End of self-consistent calculation

     Convergence has been achieved 

     Number of q in the star =    3
     List of q in the star:
          1   0.000000000  -1.000000000   0.000000000
          2  -1.000000000   0.000000000   0.000000000
          3   0.000000000   0.000000000  -1.000000000

     Diagonalizing the dynamical matrix

     q = (    0.000000000  -1.000000000   0.000000000 ) 

 **************************************************************************
     freq (    1) =      23.988331 [THz] =     800.164609 [cm-1]
     freq (    2) =      23.988331 [THz] =     800.164609 [cm-1]
     freq (    3) =      34.537945 [THz] =    1152.061844 [cm-1]
     freq (    4) =      34.537945 [THz] =    1152.061844 [cm-1]
     freq (    5) =      37.776124 [THz] =    1260.075859 [cm-1]
     freq (    6) =      37.776124 [THz] =    1260.075859 [cm-1]
 **************************************************************************

     Calculation of q =   -0.5000000  -1.0000000   0.0000000

     Parallelization info
     --------------------
     sticks:   dense  smooth     PW     G-vecs:    dense   smooth      PW
     Min          55      55     20                  932      932     203
     Max          56      56     21                  935      935     206
     Sum         661     661    241                11191    11191    2445

     Using Slab Decomposition


     Title: 
     diamond                                                                    


     bravais-lattice index     =            2
     lattice parameter (alat)  =       6.6000  a.u.
     unit-cell volume          =      71.8740 (a.u.)^3
     number of atoms/cell      =            2
     number of atomic types    =            1
     number of electrons       =         8.00
     number of Kohn-Sham states=            4
     kinetic-energy cutoff     =     110.0000  Ry
     charge density cutoff     =     440.0000  Ry
     Exchange-correlation= PZ
                           (   1   1   0   0   0   0   0)

     celldm(1)=   6.600000  celldm(2)=   0.000000  celldm(3)=   0.000000
     celldm(4)=   0.000000  celldm(5)=   0.000000  celldm(6)=   0.000000

     crystal axes: (cart. coord. in units of alat)
               a(1) = (  -0.500000   0.000000   0.500000 )  
               a(2) = (   0.000000   0.500000   0.500000 )  
               a(3) = (  -0.500000   0.500000   0.000000 )  

     reciprocal axes: (cart. coord. in units 2 pi/alat)
               b(1) = ( -1.000000 -1.000000  1.000000 )  
               b(2) = (  1.000000  1.000000  1.000000 )  
               b(3) = ( -1.000000  1.000000 -1.000000 )  


     PseudoPot. # 1 for C  read from file:
     ./C.pz-vbc.UPF
     MD5 check sum: f697e42eaa1e52b77fcf7925dd36a1dd
     Pseudo is Norm-conserving, Zval =  4.0
     Generated by new atomic code, or converted to UPF format
     Using radial grid of  269 points,  1 beta functions with: 
                l(1) =   0

     atomic species   valence    mass     pseudopotential
        C              4.00    12.01100     C ( 1.00)

     48 Sym. Ops., with inversion, found



   Cartesian axes

     site n.     atom                  positions (alat units)
         1           C   tau(   1) = (   0.0000000   0.0000000   0.0000000  )
         2           C   tau(   2) = (   0.2500000   0.2500000   0.2500000  )

     number of k points=   512

     Number of k-points >= 100: set verbosity='high' to print them.

     Dense  grid:    11191 G-vectors     FFT dimensions: (  32,  32,  32)

     Estimated max dynamical RAM per process >       0.43 MB

     Estimated total dynamical RAM >       5.19 MB

     The potential is recalculated from file :
     /home/bonacc_m/Documents/phonons/diamond/TMP_diamond/_ph0/diamond.save/charge-density

     Starting wfcs are    8 atomic wfcs

     Band Structure Calculation
     Davidson diagonalization with overlap

     ethr =  1.25E-10,  avg # of iterations =  9.4

     total cpu time spent up to now is       32.0 secs

     End of band structure calculation

     Number of k-points >= 100: set verbosity='high' to print the bands.

     highest occupied level (ev):    14.0967

     Writing config to output data dir /home/bonacc_m/Documents/phonons/diamond/TMP_diamond/_ph0/diamond.save/

     diamond                                                                    

     bravais-lattice index     =            2
     lattice parameter (alat)  =       6.6000  a.u.
     unit-cell volume          =      71.8740 (a.u.)^3
     number of atoms/cell      =            2
     number of atomic types    =            1
     kinetic-energy cut-off    =     110.0000  Ry
     charge density cut-off    =     440.0000  Ry
     convergence threshold     =      1.0E-14
     beta                      =       0.7000
     number of iterations used =            4
     Exchange-correlation= PZ
                           (   1   1   0   0   0   0   0)


     celldm(1)=    6.60000  celldm(2)=    0.00000  celldm(3)=    0.00000
     celldm(4)=    0.00000  celldm(5)=    0.00000  celldm(6)=    0.00000

     crystal axes: (cart. coord. in units of alat)
               a(1) = ( -0.5000  0.0000  0.5000 )  
               a(2) = (  0.0000  0.5000  0.5000 )  
               a(3) = ( -0.5000  0.5000  0.0000 )  

     reciprocal axes: (cart. coord. in units 2 pi/alat)
               b(1) = ( -1.0000 -1.0000  1.0000 )  
               b(2) = (  1.0000  1.0000  1.0000 )  
               b(3) = ( -1.0000  1.0000 -1.0000 )  


     Atoms inside the unit cell: 

     Cartesian axes

     site n.  atom      mass           positions (alat units)
        1     C   12.0110   tau(    1) = (    0.00000    0.00000    0.00000  )
        2     C   12.0110   tau(    2) = (    0.25000    0.25000    0.25000  )

     Computing dynamical matrix for 
                    q = (  -0.5000000  -1.0000000   0.0000000 )

      8 Sym.Ops. (no q -> -q+G )


     G cutoff =  485.4906  (    933 G-vectors)     FFT grid: ( 32, 32, 32)
     number of k points=   512

     PseudoPot. # 1 for C  read from file:
     ./C.pz-vbc.UPF
     MD5 check sum: f697e42eaa1e52b77fcf7925dd36a1dd
     Pseudo is Norm-conserving, Zval =  4.0
     Generated by new atomic code, or converted to UPF format
     Using radial grid of  269 points,  1 beta functions with: 
                l(1) =   0


     Atomic displacements:
     There are    3 irreducible representations

     Representation     1      2 modes -  To be done

     Representation     2      2 modes -  To be done

     Representation     3      2 modes -  To be done



     Alpha used in Ewald sum =   2.8000
     PHONON       :   8m20.00s CPU   8m49.87s WALL



     Representation #   1 modes #   1   2

     Self-consistent Calculation

      iter #   1 total cpu time :   531.8 secs   av.it.:   6.8
      thresh= 1.000E-02 alpha_mix =  0.700 |ddv_scf|^2 =  6.956E-06

      iter #   2 total cpu time :   534.5 secs   av.it.:  10.1
      thresh= 2.637E-04 alpha_mix =  0.700 |ddv_scf|^2 =  3.518E-06

      iter #   3 total cpu time :   537.2 secs   av.it.:   9.7
      thresh= 1.876E-04 alpha_mix =  0.700 |ddv_scf|^2 =  9.950E-09

      iter #   4 total cpu time :   539.8 secs   av.it.:   9.5
      thresh= 9.975E-06 alpha_mix =  0.700 |ddv_scf|^2 =  1.518E-11

      iter #   5 total cpu time :   542.3 secs   av.it.:   9.4
      thresh= 3.896E-07 alpha_mix =  0.700 |ddv_scf|^2 =  5.870E-14

      iter #   6 total cpu time :   544.9 secs   av.it.:   9.6
      thresh= 2.423E-08 alpha_mix =  0.700 |ddv_scf|^2 =  9.369E-16

     End of self-consistent calculation

     Convergence has been achieved 


     Representation #   2 modes #   3   4

     Self-consistent Calculation

      iter #   1 total cpu time :   546.9 secs   av.it.:   6.5
      thresh= 1.000E-02 alpha_mix =  0.700 |ddv_scf|^2 =  2.923E-06

      iter #   2 total cpu time :   549.5 secs   av.it.:   9.9
      thresh= 1.710E-04 alpha_mix =  0.700 |ddv_scf|^2 =  3.003E-07

      iter #   3 total cpu time :   551.9 secs   av.it.:   9.6
      thresh= 5.480E-05 alpha_mix =  0.700 |ddv_scf|^2 =  1.182E-10

      iter #   4 total cpu time :   554.4 secs   av.it.:   9.9
      thresh= 1.087E-06 alpha_mix =  0.700 |ddv_scf|^2 =  3.101E-12

      iter #   5 total cpu time :   556.9 secs   av.it.:   9.2
      thresh= 1.761E-07 alpha_mix =  0.700 |ddv_scf|^2 =  1.478E-14

      iter #   6 total cpu time :   559.5 secs   av.it.:   9.8
      thresh= 1.216E-08 alpha_mix =  0.700 |ddv_scf|^2 =  4.214E-17

     End of self-consistent calculation

     Convergence has been achieved 


     Representation #   3 modes #   5   6

     Self-consistent Calculation

      iter #   1 total cpu time :   561.5 secs   av.it.:   6.7
      thresh= 1.000E-02 alpha_mix =  0.700 |ddv_scf|^2 =  3.461E-06

      iter #   2 total cpu time :   564.1 secs   av.it.:  10.0
      thresh= 1.860E-04 alpha_mix =  0.700 |ddv_scf|^2 =  3.662E-07

      iter #   3 total cpu time :   566.6 secs   av.it.:   9.7
      thresh= 6.052E-05 alpha_mix =  0.700 |ddv_scf|^2 =  1.515E-10

      iter #   4 total cpu time :   569.4 secs   av.it.:   9.9
      thresh= 1.231E-06 alpha_mix =  0.700 |ddv_scf|^2 =  4.401E-12

      iter #   5 total cpu time :   571.8 secs   av.it.:   9.2
      thresh= 2.098E-07 alpha_mix =  0.700 |ddv_scf|^2 =  6.519E-15

     End of self-consistent calculation

     Convergence has been achieved 

     Number of q in the star =    6
     List of q in the star:
          1  -0.500000000  -1.000000000   0.000000000
          2   0.000000000   1.000000000   0.500000000
          3   0.000000000  -1.000000000  -0.500000000
          4   0.500000000   1.000000000   0.000000000
          5  -1.000000000  -0.500000000   0.000000000
          6   0.000000000  -0.500000000  -1.000000000

     Diagonalizing the dynamical matrix

     q = (   -0.500000000  -1.000000000   0.000000000 ) 

 **************************************************************************
     freq (    1) =      28.390958 [THz] =     947.020414 [cm-1]
     freq (    2) =      28.390958 [THz] =     947.020414 [cm-1]
     freq (    3) =      31.504859 [THz] =    1050.888972 [cm-1]
     freq (    4) =      31.504859 [THz] =    1050.888972 [cm-1]
     freq (    5) =      37.142945 [THz] =    1238.955287 [cm-1]
     freq (    6) =      37.142945 [THz] =    1238.955287 [cm-1]
 **************************************************************************

     init_run     :      0.08s CPU      0.09s WALL (       7 calls)
     electrons    :     29.95s CPU     31.59s WALL (       7 calls)

     Called by init_run:
     wfcinit      :      0.00s CPU      0.00s WALL (       7 calls)
     potinit      :      0.00s CPU      0.00s WALL (       7 calls)
     hinit0       :      0.02s CPU      0.02s WALL (       7 calls)

     Called by electrons:
     c_bands      :     29.95s CPU     31.59s WALL (       7 calls)
     v_of_rho     :      0.00s CPU      0.00s WALL (       8 calls)

     Called by c_bands:
     init_us_2    :      0.82s CPU      0.87s WALL (  137904 calls)
     init_us_2:cp :      0.71s CPU      0.76s WALL (  137904 calls)
     cegterg      :     25.16s CPU     26.52s WALL (    5864 calls)

     Called by *egterg:
     cdiaghg      :      2.22s CPU      2.34s WALL (   60866 calls)
     h_psi        :    377.91s CPU    400.90s WALL ( 1172128 calls)
     g_psi        :      0.15s CPU      0.15s WALL (   55002 calls)

     Called by h_psi:
     h_psi:calbec :     14.90s CPU     15.79s WALL ( 1172128 calls)
     vloc_psi     :    357.03s CPU    378.77s WALL ( 1172128 calls)
     add_vuspsi   :      2.44s CPU      2.60s WALL ( 1172128 calls)

     General routines
     calbec       :     24.59s CPU     26.16s WALL ( 2379434 calls)
     fft          :      0.26s CPU      0.27s WALL (     899 calls)
     ffts         :      1.20s CPU      1.28s WALL (   18504 calls)
     fftw         :    400.25s CPU    424.22s WALL (10529456 calls)
     davcio       :      5.52s CPU      5.97s WALL (  584616 calls)

     Parallel routines

     PHONON       :   8m59.33s CPU   9m31.82s WALL

     INITIALIZATION: 
     phq_setup    :      0.01s CPU      0.01s WALL (       8 calls)
     phq_init     :      0.47s CPU      0.52s WALL (       8 calls)

     phq_init     :      0.47s CPU      0.52s WALL (       8 calls)
     init_vloc    :      0.00s CPU      0.00s WALL (       8 calls)
     init_us_1    :      0.01s CPU      0.01s WALL (       8 calls)
     init_us_2    :      0.82s CPU      0.87s WALL (  137904 calls)

     DYNAMICAL MATRIX:
     dynmat0      :      0.25s CPU      0.28s WALL (       8 calls)
     phqscf       :    503.48s CPU    533.91s WALL (       8 calls)
     dynmatrix    :      0.01s CPU      0.01s WALL (       8 calls)

     phqscf       :    503.48s CPU    533.91s WALL (       8 calls)
     solve_linter :    502.40s CPU    532.66s WALL (      32 calls)
     drhodv       :      1.07s CPU      1.22s WALL (      32 calls)

     dynmat0      :      0.25s CPU      0.28s WALL (       8 calls)
     dynmat_us    :      0.25s CPU      0.27s WALL (       8 calls)
     d2ionq       :      0.00s CPU      0.00s WALL (       8 calls)

     dynmat_us    :      0.25s CPU      0.27s WALL (       8 calls)

     phqscf       :    503.48s CPU    533.91s WALL (       8 calls)
     solve_linter :    502.40s CPU    532.66s WALL (      32 calls)

     solve_linter :    502.40s CPU    532.66s WALL (      32 calls)
     dvqpsi_us    :      8.02s CPU      8.51s WALL (   18312 calls)
     sth_kernel   :    494.72s CPU    524.62s WALL (     200 calls)
     apply_dpot_b :     32.71s CPU     34.52s WALL (   95356 calls)
     ortho        :      2.46s CPU      2.59s WALL (  113668 calls)
     cgsolve      :    413.46s CPU    438.78s WALL (  113668 calls)
     incdrhoscf   :     38.35s CPU     40.51s WALL (  113488 calls)
     dv_of_drho   :      0.27s CPU      0.27s WALL (     289 calls)
     mix_pot      :      0.10s CPU      0.11s WALL (     200 calls)
     psymdvscf    :      2.23s CPU      2.26s WALL (     196 calls)

     dvqpsi_us    :      8.02s CPU      8.51s WALL (   18312 calls)
     dvqpsi_us_on :      0.16s CPU      0.17s WALL (   18312 calls)

     cgsolve      :    413.46s CPU    438.78s WALL (  113668 calls)
     ch_psi       :    387.99s CPU    411.69s WALL ( 1105398 calls)

     ch_psi       :    387.99s CPU    411.69s WALL ( 1105398 calls)
     h_psi        :    377.91s CPU    400.90s WALL ( 1172128 calls)
     last         :     28.67s CPU     30.44s WALL ( 1105398 calls)

     h_psi        :    377.91s CPU    400.90s WALL ( 1172128 calls)
     add_vuspsi   :      2.44s CPU      2.60s WALL ( 1172128 calls)

     incdrhoscf   :     38.35s CPU     40.51s WALL (  113488 calls)


      General routines
     calbec       :     24.59s CPU     26.16s WALL ( 2379434 calls)
     fft          :      0.26s CPU      0.27s WALL (     899 calls)
     ffts         :      1.20s CPU      1.28s WALL (   18504 calls)
     fftw         :    400.25s CPU    424.22s WALL (10529456 calls)
     davcio       :      5.52s CPU      5.97s WALL (  584616 calls)
     write_rec    :      0.07s CPU      0.08s WALL (     232 calls)


     PHONON       :   8m59.33s CPU   9m31.82s WALL


   This run was terminated on:  17: 5:28   2May2024            

=------------------------------------------------------------------------------=
   JOB DONE.
=------------------------------------------------------------------------------=
