
     Program PWSCF v.7.1 starts on  2May2024 at 16:55:55 

     This program is part of the open-source Quantum ESPRESSO suite
     for quantum simulation of materials; please cite
         "P. Giannozzi et al., J. Phys.:Condens. Matter 21 395502 (2009);
         "P. Giannozzi et al., J. Phys.:Condens. Matter 29 465901 (2017);
         "P. Giannozzi et al., J. Chem. Phys. 152 154105 (2020);
          URL http://www.quantum-espresso.org", 
     in publications or presentations arising from this work. More details at
     http://www.quantum-espresso.org/quote

     Parallel version (MPI & OpenMP), running on      12 processor cores
     Number of MPI processes:                12
     Threads/MPI process:                     1

     MPI processes distributed on     1 nodes
     222691 MiB available memory on the printing compute node when the environment starts

     Waiting for input...
     Reading input from standard input

     Current dimensions of program PWSCF are:
     Max number of different atomic species (ntypx) = 10
     Max number of k-points (npk) =  40000
     Max angular momentum in pseudopotentials (lmaxx) =  4

     R & G space division:  proc/nbgrp/npool/nimage =      12
     Subspace diagonalization in iterative solution of the eigenvalue problem:
     a serial algorithm will be used


     Parallelization info
     --------------------
     sticks:   dense  smooth     PW     G-vecs:    dense   smooth      PW
     Min          55      55     17                  932      932     173
     Max          56      56     18                  935      935     175
     Sum         661     661    211                11191    11191    2085

     Using Slab Decomposition



     bravais-lattice index     =            2
     lattice parameter (alat)  =       6.6000  a.u.
     unit-cell volume          =      71.8740 (a.u.)^3
     number of atoms/cell      =            2
     number of atomic types    =            1
     number of electrons       =         8.00
     number of Kohn-Sham states=            4
     kinetic-energy cutoff     =     110.0000  Ry
     charge density cutoff     =     440.0000  Ry
     scf convergence threshold =      1.0E-09
     mixing beta               =       0.7000
     number of iterations used =            8  plain     mixing
     Exchange-correlation= SLA  PZ   NOGX NOGC
                           (   1   1   0   0   0   0   0)

     celldm(1)=   6.600000  celldm(2)=   0.000000  celldm(3)=   0.000000
     celldm(4)=   0.000000  celldm(5)=   0.000000  celldm(6)=   0.000000

     crystal axes: (cart. coord. in units of alat)
               a(1) = (  -0.500000   0.000000   0.500000 )  
               a(2) = (   0.000000   0.500000   0.500000 )  
               a(3) = (  -0.500000   0.500000   0.000000 )  

     reciprocal axes: (cart. coord. in units 2 pi/alat)
               b(1) = ( -1.000000 -1.000000  1.000000 )  
               b(2) = (  1.000000  1.000000  1.000000 )  
               b(3) = ( -1.000000  1.000000 -1.000000 )  


     PseudoPot. # 1 for C  read from file:
     ./C.pz-vbc.UPF
     MD5 check sum: f697e42eaa1e52b77fcf7925dd36a1dd
     Pseudo is Norm-conserving, Zval =  4.0
     Generated by new atomic code, or converted to UPF format
     Using radial grid of  269 points,  1 beta functions with: 
                l(1) =   0

     atomic species   valence    mass     pseudopotential
        C              4.00    12.01100     C ( 1.00)

     48 Sym. Ops., with inversion, found (24 have fractional translation)



   Cartesian axes

     site n.     atom                  positions (alat units)
         1           C   tau(   1) = (   0.0000000   0.0000000   0.0000000  )
         2           C   tau(   2) = (   0.2500000   0.2500000   0.2500000  )

     number of k points=    60
                       cart. coord. in units 2pi/alat
        k(    1) = (  -0.0625000   0.0625000   0.0625000), wk =   0.0078125
        k(    2) = (  -0.1875000   0.1875000  -0.0625000), wk =   0.0234375
        k(    3) = (  -0.3125000   0.3125000  -0.1875000), wk =   0.0234375
        k(    4) = (  -0.4375000   0.4375000  -0.3125000), wk =   0.0234375
        k(    5) = (   0.4375000  -0.4375000   0.5625000), wk =   0.0234375
        k(    6) = (   0.3125000  -0.3125000   0.4375000), wk =   0.0234375
        k(    7) = (   0.1875000  -0.1875000   0.3125000), wk =   0.0234375
        k(    8) = (   0.0625000  -0.0625000   0.1875000), wk =   0.0234375
        k(    9) = (  -0.0625000   0.3125000   0.0625000), wk =   0.0234375
        k(   10) = (  -0.1875000   0.4375000  -0.0625000), wk =   0.0468750
        k(   11) = (  -0.3125000   0.5625000  -0.1875000), wk =   0.0468750
        k(   12) = (   0.5625000  -0.3125000   0.6875000), wk =   0.0468750
        k(   13) = (   0.4375000  -0.1875000   0.5625000), wk =   0.0468750
        k(   14) = (   0.3125000  -0.0625000   0.4375000), wk =   0.0468750
        k(   15) = (   0.1875000   0.0625000   0.3125000), wk =   0.0468750
        k(   16) = (  -0.0625000   0.5625000   0.0625000), wk =   0.0234375
        k(   17) = (  -0.1875000   0.6875000  -0.0625000), wk =   0.0468750
        k(   18) = (   0.6875000  -0.1875000   0.8125000), wk =   0.0468750
        k(   19) = (   0.5625000  -0.0625000   0.6875000), wk =   0.0468750
        k(   20) = (   0.4375000   0.0625000   0.5625000), wk =   0.0468750
        k(   21) = (   0.3125000   0.1875000   0.4375000), wk =   0.0468750
        k(   22) = (  -0.0625000   0.8125000   0.0625000), wk =   0.0234375
        k(   23) = (   0.8125000  -0.0625000   0.9375000), wk =   0.0468750
        k(   24) = (   0.6875000   0.0625000   0.8125000), wk =   0.0468750
        k(   25) = (   0.5625000   0.1875000   0.6875000), wk =   0.0468750
        k(   26) = (   0.4375000   0.3125000   0.5625000), wk =   0.0468750
        k(   27) = (  -0.0625000  -0.9375000   0.0625000), wk =   0.0234375
        k(   28) = (  -0.1875000  -0.8125000  -0.0625000), wk =   0.0468750
        k(   29) = (  -0.3125000  -0.6875000  -0.1875000), wk =   0.0468750
        k(   30) = (  -0.0625000  -0.6875000   0.0625000), wk =   0.0234375
        k(   31) = (  -0.1875000  -0.5625000  -0.0625000), wk =   0.0468750
        k(   32) = (  -0.0625000  -0.4375000   0.0625000), wk =   0.0234375
        k(   33) = (  -0.1875000   0.1875000   0.1875000), wk =   0.0078125
        k(   34) = (  -0.3125000   0.3125000   0.0625000), wk =   0.0234375
        k(   35) = (  -0.4375000   0.4375000  -0.0625000), wk =   0.0234375
        k(   36) = (   0.4375000  -0.4375000   0.8125000), wk =   0.0234375
        k(   37) = (   0.3125000  -0.3125000   0.6875000), wk =   0.0234375
        k(   38) = (   0.1875000  -0.1875000   0.5625000), wk =   0.0234375
        k(   39) = (  -0.1875000   0.4375000   0.1875000), wk =   0.0234375
        k(   40) = (  -0.3125000   0.5625000   0.0625000), wk =   0.0468750
        k(   41) = (   0.5625000  -0.3125000   0.9375000), wk =   0.0468750
        k(   42) = (   0.4375000  -0.1875000   0.8125000), wk =   0.0468750
        k(   43) = (   0.3125000  -0.0625000   0.6875000), wk =   0.0468750
        k(   44) = (  -0.1875000   0.6875000   0.1875000), wk =   0.0234375
        k(   45) = (   0.6875000  -0.1875000   1.0625000), wk =   0.0468750
        k(   46) = (   0.5625000  -0.0625000   0.9375000), wk =   0.0468750
        k(   47) = (   0.4375000   0.0625000   0.8125000), wk =   0.0468750
        k(   48) = (  -0.1875000  -1.0625000   0.1875000), wk =   0.0234375
        k(   49) = (  -0.3125000  -0.9375000   0.0625000), wk =   0.0468750
        k(   50) = (  -0.1875000  -0.8125000   0.1875000), wk =   0.0234375
        k(   51) = (  -0.3125000   0.3125000   0.3125000), wk =   0.0078125
        k(   52) = (  -0.4375000   0.4375000   0.1875000), wk =   0.0234375
        k(   53) = (   0.4375000  -0.4375000   1.0625000), wk =   0.0234375
        k(   54) = (   0.3125000  -0.3125000   0.9375000), wk =   0.0234375
        k(   55) = (  -0.3125000   0.5625000   0.3125000), wk =   0.0234375
        k(   56) = (   0.5625000  -0.3125000   1.1875000), wk =   0.0468750
        k(   57) = (   0.4375000  -0.1875000   1.0625000), wk =   0.0468750
        k(   58) = (  -0.3125000  -1.1875000   0.3125000), wk =   0.0234375
        k(   59) = (  -0.4375000   0.4375000   0.4375000), wk =   0.0078125
        k(   60) = (   0.4375000  -0.4375000   1.3125000), wk =   0.0234375

     Dense  grid:    11191 G-vectors     FFT dimensions: (  32,  32,  32)

     Estimated max dynamical RAM per process >       1.08 MB

     Estimated total dynamical RAM >      12.98 MB

     Initial potential from superposition of free atoms

     starting charge       7.9999, renormalised to       8.0000
     Starting wfcs are    8 randomized atomic wfcs

     total cpu time spent up to now is        0.1 secs

     Self-consistent Calculation

     iteration #  1     ecut=   110.00 Ry     beta= 0.70
     Davidson diagonalization with overlap
     ethr =  1.00E-02,  avg # of iterations =  2.0

     total cpu time spent up to now is        0.2 secs

     total energy              =     -22.78967971 Ry
     estimated scf accuracy    <       0.14212673 Ry

     iteration #  2     ecut=   110.00 Ry     beta= 0.70
     Davidson diagonalization with overlap
     ethr =  1.78E-03,  avg # of iterations =  1.5

     total cpu time spent up to now is        0.3 secs

     total energy              =     -22.80029696 Ry
     estimated scf accuracy    <       0.00276068 Ry

     iteration #  3     ecut=   110.00 Ry     beta= 0.70
     Davidson diagonalization with overlap
     ethr =  3.45E-05,  avg # of iterations =  2.0

     total cpu time spent up to now is        0.4 secs

     total energy              =     -22.80117733 Ry
     estimated scf accuracy    <       0.00007739 Ry

     iteration #  4     ecut=   110.00 Ry     beta= 0.70
     Davidson diagonalization with overlap
     ethr =  9.67E-07,  avg # of iterations =  2.9

     total cpu time spent up to now is        0.4 secs

     total energy              =     -22.80120936 Ry
     estimated scf accuracy    <       0.00000486 Ry

     iteration #  5     ecut=   110.00 Ry     beta= 0.70
     Davidson diagonalization with overlap
     ethr =  6.07E-08,  avg # of iterations =  3.0

     total cpu time spent up to now is        0.5 secs

     total energy              =     -22.80121142 Ry
     estimated scf accuracy    <       0.00000003 Ry

     iteration #  6     ecut=   110.00 Ry     beta= 0.70
     Davidson diagonalization with overlap
     ethr =  3.72E-10,  avg # of iterations =  5.3

     total cpu time spent up to now is        0.7 secs

     total energy              =     -22.80121151 Ry
     estimated scf accuracy    <          6.1E-09 Ry

     iteration #  7     ecut=   110.00 Ry     beta= 0.70
     Davidson diagonalization with overlap
     ethr =  7.64E-11,  avg # of iterations =  1.9

     total cpu time spent up to now is        0.7 secs

     End of self-consistent calculation

          k =-0.0625 0.0625 0.0625 (  1402 PWs)   bands (ev):

    -7.6858  13.5277  14.0967  14.0967

          k =-0.1875 0.1875-0.0625 (  1404 PWs)   bands (ev):

    -7.0922  11.0624  12.3929  13.7524

          k =-0.3125 0.3125-0.1875 (  1394 PWs)   bands (ev):

    -5.6224   6.7425  11.3219  12.5960

          k =-0.4375 0.4375-0.3125 (  1409 PWs)   bands (ev):

    -3.3413   2.6001  10.8165  11.5992

          k = 0.4375-0.4375 0.5625 (  1410 PWs)   bands (ev):

    -1.6678   0.4413  10.9340  11.0907

          k = 0.3125-0.3125 0.4375 (  1401 PWs)   bands (ev):

    -4.1814   3.9156  11.1845  11.6198

          k = 0.1875-0.1875 0.3125 (  1391 PWs)   bands (ev):

    -6.2075   8.1989  11.9011  12.7178

          k = 0.0625-0.0625 0.1875 (  1410 PWs)   bands (ev):

    -7.3886  12.3486  13.0922  13.7498

          k =-0.0625 0.3125 0.0625 (  1404 PWs)   bands (ev):

    -6.7963  10.9720  11.7677  12.6836

          k =-0.1875 0.4375-0.0625 (  1391 PWs)   bands (ev):

    -5.6214   8.3631   9.9432  11.7690

          k =-0.3125 0.5625-0.1875 (  1402 PWs)   bands (ev):

    -3.6109   4.3472   9.3154  10.5495

          k = 0.5625-0.3125 0.6875 (  1405 PWs)   bands (ev):

    -1.1456   0.9941   8.9260  10.0856

          k = 0.4375-0.1875 0.5625 (  1403 PWs)   bands (ev):

    -2.7834   3.0954   8.6025  10.8188

          k = 0.3125-0.0625 0.4375 (  1391 PWs)   bands (ev):

    -5.0410   7.0536   8.9098  12.0786

          k = 0.1875 0.0625 0.3125 (  1391 PWs)   bands (ev):

    -6.5015   9.6772  11.1776  13.0830

          k =-0.0625 0.5625 0.0625 (  1395 PWs)   bands (ev):

    -4.7473   8.2675   9.3884   9.5205

          k =-0.1875 0.6875-0.0625 (  1400 PWs)   bands (ev):

    -3.0333   5.9714   7.7353   8.6267

          k = 0.6875-0.1875 0.8125 (  1404 PWs)   bands (ev):

    -0.6449   2.8969   6.2107   8.5149

          k = 0.5625-0.0625 0.6875 (  1403 PWs)   bands (ev):

    -0.6961   3.0555   5.2401   9.3597

          k = 0.4375 0.0625 0.5625 (  1399 PWs)   bands (ev):

    -3.0524   4.7921   6.8496  10.7420

          k = 0.3125 0.1875 0.4375 (  1401 PWs)   bands (ev):

    -4.7527   5.4385  10.3373  11.8859

          k =-0.0625 0.8125 0.0625 (  1392 PWs)   bands (ev):

    -1.6256   4.4933   7.5297   7.9464

          k = 0.8125-0.0625 0.9375 (  1396 PWs)   bands (ev):

     0.5037   2.4940   6.3033   7.4562

          k = 0.6875 0.0625 0.8125 (  1397 PWs)   bands (ev):

     0.8912   2.4606   4.6025   8.2062

          k = 0.5625 0.1875 0.6875 (  1405 PWs)   bands (ev):

    -0.6387   1.5408   7.1439   9.5922

          k = 0.4375 0.3125 0.5625 (  1408 PWs)   bands (ev):

    -2.2727   1.5672  10.1096  10.9354

          k =-0.0625-0.9375 0.0625 (  1391 PWs)   bands (ev):

     0.2769   2.3449   7.1957   7.6506

          k =-0.1875-0.8125-0.0625 (  1401 PWs)   bands (ev):

    -1.3643   4.4228   6.7664   7.8023

          k =-0.3125-0.6875-0.1875 (  1404 PWs)   bands (ev):

    -2.2219   3.4989   8.0199   9.2248

          k =-0.0625-0.6875 0.0625 (  1397 PWs)   bands (ev):

    -3.3112   6.5671   8.2480   8.5311

          k =-0.1875-0.5625-0.0625 (  1399 PWs)   bands (ev):

    -4.4605   7.1656   8.8171  10.1204

          k =-0.0625-0.4375 0.0625 (  1391 PWs)   bands (ev):

    -5.9132   9.6184  10.4874  11.1755

          k =-0.1875 0.1875 0.1875 (  1399 PWs)   bands (ev):

    -6.7965   9.6380  12.9976  12.9976

          k =-0.3125 0.3125 0.0625 (  1385 PWs)   bands (ev):

    -5.9145   8.3191  10.0661  12.9695

          k =-0.4375 0.4375-0.0625 (  1401 PWs)   bands (ev):

    -4.1797   5.8372   7.8244  11.7701

          k = 0.4375-0.4375 0.8125 (  1399 PWs)   bands (ev):

    -1.7363   2.1001   7.8472  10.5276

          k = 0.3125-0.3125 0.6875 (  1406 PWs)   bands (ev):

    -1.7246   2.0629   8.6203   9.7978

          k = 0.1875-0.1875 0.5625 (  1404 PWs)   bands (ev):

    -4.1753   5.7590   9.7758   9.9219

          k =-0.1875 0.4375 0.1875 (  1394 PWs)   bands (ev):

    -5.3306   6.8868  10.7752  11.5965

          k =-0.3125 0.5625 0.0625 (  1397 PWs)   bands (ev):

    -3.8917   5.9468   7.8627  10.5831

          k = 0.5625-0.3125 0.9375 (  1398 PWs)   bands (ev):

    -1.6887   3.9549   6.0551   9.1654

          k = 0.4375-0.1875 0.8125 (  1403 PWs)   bands (ev):

    -0.1182   2.0101   6.4426   8.3063

          k = 0.3125-0.0625 0.6875 (  1399 PWs)   bands (ev):

    -2.4854   4.9946   6.9518   8.8462

          k =-0.1875 0.6875 0.1875 (  1400 PWs)   bands (ev):

    -2.7589   4.8130   7.9899   8.9813

          k = 0.6875-0.1875 1.0625 (  1404 PWs)   bands (ev):

    -0.8577   4.0389   6.0753   7.4423

          k = 0.5625-0.0625 0.9375 (  1406 PWs)   bands (ev):

     1.3460   2.6971   4.9542   6.2755

          k = 0.4375 0.0625 0.8125 (  1404 PWs)   bands (ev):

    -0.1549   3.3102   5.4452   7.4501

          k =-0.1875-1.0625 0.1875 (  1396 PWs)   bands (ev):

     0.6883   2.5384   5.1627   8.1547

          k =-0.3125-0.9375 0.0625 (  1400 PWs)   bands (ev):

     0.9143   2.6840   5.4116   6.8427

          k =-0.1875-0.8125 0.1875 (  1394 PWs)   bands (ev):

    -1.1131   3.8957   6.1798   8.4336

          k =-0.3125 0.3125 0.3125 (  1399 PWs)   bands (ev):

    -5.0419   5.2361  11.9513  11.9513

          k =-0.4375 0.4375 0.1875 (  1399 PWs)   bands (ev):

    -3.8970   4.1522   9.4882  11.7214

          k = 0.4375-0.4375 1.0625 (  1396 PWs)   bands (ev):

    -1.9677   3.8047   5.9424  10.3858

          k = 0.3125-0.3125 0.9375 (  1407 PWs)   bands (ev):

     0.3272   2.4657   4.6690   9.1081

          k =-0.3125 0.5625 0.3125 (  1406 PWs)   bands (ev):

    -3.0596   2.8389  10.3999  10.4331

          k = 0.5625-0.3125 1.1875 (  1407 PWs)   bands (ev):

    -1.4617   2.3291   7.6936   9.4460

          k = 0.4375-0.1875 1.0625 (  1404 PWs)   bands (ev):

     0.5854   2.6349   4.8397   7.8353

          k =-0.3125-1.1875 0.3125 (  1408 PWs)   bands (ev):

    -0.3654   1.7529   6.6025   9.3437

          k =-0.4375 0.4375 0.4375 (  1401 PWs)   bands (ev):

    -2.5461   1.3020  11.3831  11.3831

          k = 0.4375-0.4375 1.3125 (  1402 PWs)   bands (ev):

    -1.4081   0.7241   9.6291  10.7815

     highest occupied level (ev):    14.0967

!    total energy              =     -22.80121151 Ry
     estimated scf accuracy    <          1.0E-10 Ry

     The total energy is the sum of the following terms:
     one-electron contribution =       8.66178462 Ry
     hartree contribution      =       1.81667280 Ry
     xc contribution           =      -7.16186024 Ry
     ewald contribution        =     -26.11780870 Ry

     convergence has been achieved in   7 iterations

     Writing all to output data dir /home/bonacc_m/Documents/phonons/diamond/TMP_diamond/diamond.save/

     init_run     :      0.07s CPU      0.07s WALL (       1 calls)
     electrons    :      0.61s CPU      0.65s WALL (       1 calls)

     Called by init_run:
     wfcinit      :      0.05s CPU      0.06s WALL (       1 calls)
     potinit      :      0.00s CPU      0.00s WALL (       1 calls)
     hinit0       :      0.00s CPU      0.00s WALL (       1 calls)

     Called by electrons:
     c_bands      :      0.54s CPU      0.57s WALL (       7 calls)
     sum_band     :      0.07s CPU      0.07s WALL (       7 calls)
     v_of_rho     :      0.00s CPU      0.00s WALL (       8 calls)
     mix_rho      :      0.00s CPU      0.00s WALL (       7 calls)

     Called by c_bands:
     init_us_2    :      0.00s CPU      0.00s WALL (     900 calls)
     init_us_2:cp :      0.00s CPU      0.00s WALL (     900 calls)
     cegterg      :      0.53s CPU      0.56s WALL (     420 calls)

     Called by *egterg:
     cdiaghg      :      0.03s CPU      0.03s WALL (    1544 calls)
     h_psi        :      0.46s CPU      0.49s WALL (    1604 calls)
     g_psi        :      0.00s CPU      0.00s WALL (    1124 calls)

     Called by h_psi:
     h_psi:calbec :      0.02s CPU      0.02s WALL (    1604 calls)
     vloc_psi     :      0.44s CPU      0.46s WALL (    1604 calls)
     add_vuspsi   :      0.00s CPU      0.00s WALL (    1604 calls)

     General routines
     calbec       :      0.02s CPU      0.02s WALL (    1604 calls)
     fft          :      0.00s CPU      0.00s WALL (      23 calls)
     ffts         :      0.00s CPU      0.00s WALL (       7 calls)
     fftw         :      0.46s CPU      0.49s WALL (   13326 calls)

     Parallel routines

     PWSCF        :      0.73s CPU      0.79s WALL


   This run was terminated on:  16:55:56   2May2024            

=------------------------------------------------------------------------------=
   JOB DONE.
=------------------------------------------------------------------------------=
